ITEM: TIMESTEP
10000
ITEM: NUMBER OF ATOMS
2449
ITEM: BOX BOUNDS ff ff pp
-5.0000000000000000e+00 5.9439409343004591e+01
-5.0000000000000000e+00 5.2631951782371807e+01
-1.0000000000000000e+01 1.0000000000000000e+01
ITEM: ATOMS id type x y z fx fy fz
1 1 0 0 0 0 0 0
2 1 1.11913 0 0 -7.47281e-15 0 0
3 1 2.23541 0 0 3.29038e-14 0 0
4 1 3.35165 0 0 -2.68017e-14 0 0
5 1 4.46783 0 0 3.38028e-14 0 0
6 1 5.58397 0 0 7.31251e-14 0 0
7 1 6.70008 0 0 -4.00727e-15 0 0
8 1 7.81617 0 0 6.37845e-14 0 0
9 1 8.93224 0 0 9.61206e-14 0 0
10 1 10.0483 0 0 3.49838e-14 0 0
11 1 11.1644 0 0 -1.89953e-15 0 0
12 1 12.2804 0 0 5.40491e-14 0 0
13 1 13.3965 0 0 1.38383e-13 0 0
14 1 14.5125 0 0 1.414e-13 0 0
15 1 15.6285 0 0 3.3044e-14 0 0
16 1 16.7446 0 0 -2.05347e-14 0 0
17 1 17.8606 0 0 1.652e-13 0 0
18 1 18.9766 0 0 2.06292e-13 0 0
19 1 20.0927 0 0 2.29917e-13 0 0
20 1 21.2087 0 0 1.1449e-13 0 0
21 1 22.3247 0 0 1.36404e-13 0 0
22 1 23.4408 0 0 2.453e-13 0 0
23 1 24.5568 0 0 2.51865e-13 0 0
24 1 25.6728 0 0 2.13522e-13 0 0
25 1 26.7889 0 0 3.17105e-14 0 0
26 1 27.9049 0 0 7.7193e-14 0 0
27 1 29.021 0 0 6.38378e-14 0 0
28 1 30.137 0 0 2.70145e-13 0 0
29 1 31.2531 0 0 2.64213e-13 0 0
30 1 32.3692 0 0 6.01035e-13 0 0
31 1 33.4852 0 0 1.26953e-13 0 0
32 1 34.6013 0 0 5.47573e-13 0 0
33 1 35.7174 0 0 2.86846e-13 0 0
34 1 36.8335 0 0 6.29324e-13 0 0
35 1 37.9497 0 0 1.61716e-13 0 0
36 1 39.0658 0 0 -1.02523e-13 0 0
37 1 40.182 0 0 4.29656e-13 0 0
38 1 41.2982 0 0 1.90292e-13 0 0
39 1 42.4144 0 0 -6.8251e-14 0 0
40 1 43.5306 0 0 2.35978e-13 0 0
41 1 44.6469 0 0 5.70057e-13 0 0
42 1 45.7632 0 0 3.09588e-13 0 0
43 1 46.8796 0 0 5.26414e-13 0 0
44 1 47.9961 0 0 3.4038e-13 0 0
45 1 49.1127 0 0 4.38891e-13 0 0
46 1 50.2295 0 0 3.5656e-13 0 0
47 1 51.3466 0 0 1.89302e-13 0 0
48 1 52.4643 0 0 6.10026e-13 0 0
49 1 53.5833 0 0 7.90548e-14 0 0
50 1 0.560578 0.969293 0 2.07919e-14 2.66454e-15 0
51 1 1.67734 0.968744 0 -1.8723e-14 7.10543e-15 0
52 1 2.79366 0.968735 0 -1.35552e-14 3.13638e-15 0
53 1 3.90985 0.968748 0 2.13601e-14 -5.05151e-15 0
54 1 5.02598 0.968759 0 6.20467e-14 2.16493e-15 0
55 1 6.14208 0.968768 0 -1.93659e-14 -1.21569e-14 0
56 1 7.25816 0.968775 0 -3.42839e-15 -3.63598e-15 0
57 1 8.37423 0.96878 0 1.02196e-13 -2.7478e-15 0
58 1 9.49029 0.968784 0 1.2517e-13 -1.03528e-14 0
59 1 10.6063 0.968787 0 5.19743e-14 4.16334e-16 0
60 1 11.7224 0.96879 0 1.00155e-13 -1.09079e-14 0
61 1 12.8384 0.968792 0 5.31044e-14 -2.498e-16 0
62 1 13.9545 0.968794 0 -3.56499e-14 5.38458e-15 0
63 1 15.0705 0.968795 0 -1.79156e-15 -4.30211e-15 0
64 1 16.1866 0.968797 0 2.55942e-13 -1.11577e-14 0
65 1 17.3026 0.968797 0 1.25559e-13 7.02216e-15 0
66 1 18.4186 0.968798 0 -4.3242e-14 -4.4964e-15 0
67 1 19.5347 0.968798 0 3.24262e-14 -2.60902e-15 0
68 1 20.6507 0.968798 0 2.97974e-13 -7.35523e-15 0
69 1 21.7667 0.968797 0 4.60586e-14 -8.16014e-15 0
70 1 22.8827 0.968796 0 1.3528e-13 1.90403e-14 0
71 1 23.9988 0.968794 0 1.78189e-13 9.27036e-15 0
72 1 25.1148 0.968792 0 -1.04667e-13 -5.41234e-15 0
73 1 26.2308 0.968789 0 2.58849e-13 3.33067e-16 0
74 1 27.3469 0.968786 0 1.65436e-13 -8.82627e-15 0
75 1 28.4629 0.968782 0 -5.20518e-14 -9.21485e-15 0
76 1 29.579 0.968778 0 -1.62117e-13 -7.82707e-15 0
77 1 30.695 0.968773 0 1.80251e-13 4.27436e-15 0
78 1 31.8111 0.968768 0 3.28903e-14 -5.52336e-15 0
79 1 32.9272 0.968761 0 2.64053e-14 -7.02216e-15 0
80 1 34.0433 0.968755 0 4.54497e-13 -9.4369e-16 0
81 1 35.1594 0.968747 0 3.34032e-14 3.88578e-16 0
82 1 36.2755 0.968739 0 -2.38251e-13 5.9952e-15 0
83 1 37.3916 0.96873 0 4.89554e-13 1.04639e-14 0
84 1 38.5077 0.968721 0 5.77314e-13 9.71445e-16 0
85 1 39.6239 0.968711 0 3.63901e-13 3.60822e-15 0
86 1 40.74 0.9687 0 -3.99071e-13 1.15186e-14 0
87 1 41.8562 0.968688 0 9.75502e-14 7.24421e-15 0
88 1 42.9724 0.968675 0 -1.19028e-14 -1.21847e-14 0
89 1 44.0887 0.96866 0 -1.67267e-13 -4.16334e-15 0
90 1 45.2049 0.968644 0 4.59694e-13 8.52096e-15 0
91 1 46.3213 0.968625 0 -4.47608e-14 -1.21292e-14 0
92 1 47.4376 0.968605 0 1.34821e-15 -1.24345e-14 0
93 1 48.5541 0.968582 0 6.20657e-13 2.34257e-14 0
94 1 49.6706 0.968559 0 -5.45763e-13 2.21489e-14 0
95 1 50.7871 0.968552 0 9.38394e-14 -2.22045e-16 0
96 1 51.9035 0.968616 0 5.2225e-13 -5.82867e-16 0
97 1 53.0194 0.969042 0 2.12187e-13 7.82707e-15 0
98 1 54.1392 0.973134 0 4.52244e-13 4.88498e-15 0
99 1 0 1.93588 0 0 -1.04083e-14 0
100 1 1.12067 1.93544 0 -7.38642e-15 -1.90403e-14 0
101 1 2.23616 1.93517 0 1.89801e-14 -1.66533e-15 0
102 1 3.35206 1.93512 0 1.13365e-14 -9.60343e-15 0
103 1 4.46807 1.93512 0 1.74168e-14 -3.02536e-15 0
104 1 5.58413 1.93513 0 -3.3271e-14 5.32907e-15 0
105 1 6.70018 1.93513 0 -1.75499e-15 -1.63758e-14 0
106 1 7.81624 1.93514 0 5.16569e-14 1.113e-14 0
107 1 8.9323 1.93515 0 1.82822e-14 2.96985e-15 0
108 1 10.0483 1.93515 0 -6.59366e-14 1.35447e-14 0
109 1 11.1644 1.93516 0 -2.81775e-14 1.28508e-14 0
110 1 12.2804 1.93516 0 4.9597e-14 8.43769e-15 0
111 1 13.3965 1.93517 0 6.26603e-14 -7.41074e-15 0
112 1 14.5125 1.93517 0 6.9591e-14 -1.48215e-14 0
113 1 15.6285 1.93517 0 1.37556e-13 -7.66054e-15 0
114 1 16.7446 1.93517 0 -2.41045e-13 4.7462e-15 0
115 1 17.8606 1.93518 0 2.75117e-13 -1.99563e-14 0
116 1 18.9766 1.93518 0 -2.44899e-14 7.07767e-15 0
117 1 20.0927 1.93518 0 -1.73924e-13 -1.65701e-14 0
118 1 21.2087 1.93517 0 6.82996e-14 6.41154e-15 0
119 1 22.3247 1.93517 0 2.2227e-13 -6.66134e-16 0
120 1 23.4408 1.93517 0 -8.42002e-14 1.1241e-14 0
121 1 24.5568 1.93517 0 9.2863e-14 -1.76803e-14 0
122 1 25.6728 1.93516 0 9.53571e-15 3.44169e-15 0
123 1 26.7889 1.93516 0 2.50007e-13 5.4956e-15 0
124 1 27.9049 1.93515 0 -1.38213e-13 1.41553e-15 0
125 1 29.0209 1.93514 0 1.37012e-13 -1.37945e-14 0
126 1 30.137 1.93513 0 1.21917e-13 1.71807e-14 0
127 1 31.2531 1.93512 0 2.86164e-13 -8.21565e-15 0
128 1 32.3691 1.93511 0 5.3832e-13 -9.90874e-15 0
129 1 33.4852 1.9351 0 3.22249e-13 1.09357e-14 0
130 1 34.6013 1.93508 0 4.53367e-13 1.43774e-14 0
131 1 35.7174 1.93507 0 4.206e-13 5.2458e-15 0
132 1 36.8335 1.93505 0 5.32843e-13 9.96425e-15 0
133 1 37.9496 1.93503 0 4.25363e-13 -1.34892e-14 0
134 1 39.0657 1.93501 0 -5.65987e-13 8.60423e-16 0
135 1 40.1819 1.93499 0 6.72688e-14 -1.45717e-14 0
136 1 41.298 1.93497 0 3.78303e-13 -2.17049e-14 0
137 1 42.4142 1.93495 0 6.83701e-14 7.21645e-16 0
138 1 43.5304 1.93493 0 1.07316e-13 2.29261e-14 0
139 1 44.6466 1.9349 0 5.36182e-13 7.21645e-15 0
140 1 45.7629 1.93487 0 -5.34265e-14 -1.83187e-15 0
141 1 46.8792 1.93485 0 5.09242e-14 6.46705e-15 0
142 1 47.9955 1.93483 0 -1.52579e-13 -3.46945e-15 0
143 1 49.1118 1.93482 0 4.36758e-13 -4.99878e-14 0
144 1 50.2281 1.93485 0 -1.20139e-13 -3.55271e-15 0
145 1 51.3443 1.935 0 2.66748e-13 -1.02141e-14 0
146 1 52.4604 1.93549 0 4.21134e-13 -7.91034e-15 0
147 1 53.5766 1.93734 0 3.03003e-14 7.10543e-15 0
148 1 0.561335 2.90198 0 -7.22177e-15 -2.19547e-14 0
149 1 1.67805 2.90172 0 1.39919e-14 1.04916e-14 0
150 1 2.79415 2.90156 0 3.60592e-14 -3.03924e-14 0
151 1 3.91018 2.9015 0 -1.15802e-14 4.46865e-15 0
152 1 5.0262 2.90149 0 2.11568e-14 1.88738e-14 0
153 1 6.14223 2.90149 0 4.40152e-14 2.07057e-14 0
154 1 7.25827 2.90149 0 1.704e-14 -4.55191e-15 0
155 1 8.37432 2.90149 0 -5.16548e-14 -1.75693e-14 0
156 1 9.49036 2.9015 0 5.06427e-14 -5.7454e-15 0
157 1 10.6064 2.90151 0 1.54619e-13 -1.04083e-14 0
158 1 11.7224 2.90151 0 9.31504e-14 1.25733e-14 0
159 1 12.8385 2.90152 0 1.38965e-13 -2.54519e-14 0
160 1 13.9545 2.90152 0 2.24363e-14 1.22125e-15 0
161 1 15.0705 2.90153 0 1.39142e-13 2.5896e-14 0
162 1 16.1866 2.90153 0 -8.05675e-14 -4.60743e-15 0
163 1 17.3026 2.90153 0 4.82923e-14 2.20934e-14 0
164 1 18.4186 2.90153 0 1.5227e-13 -1.14631e-14 0
165 1 19.5347 2.90153 0 1.78737e-13 -2.94209e-15 0
166 1 20.6507 2.90153 0 7.27966e-14 -8.32667e-15 0
167 1 21.7667 2.90153 0 2.95049e-13 2.63123e-14 0
168 1 22.8827 2.90153 0 2.97121e-13 -3.40283e-14 0
169 1 23.9988 2.90152 0 1.32526e-13 2.09555e-14 0
170 1 25.1148 2.90152 0 2.51951e-13 -2.88936e-14 0
171 1 26.2308 2.90151 0 2.29508e-13 -2.4869e-14 0
172 1 27.3469 2.9015 0 -9.27428e-15 1.62925e-14 0
173 1 28.4629 2.90149 0 2.49281e-13 -1.77913e-14 0
174 1 29.579 2.90148 0 -5.2236e-14 -6.73073e-15 0
175 1 30.695 2.90146 0 1.03192e-13 2.79776e-14 0
176 1 31.8111 2.90145 0 1.22707e-15 7.13318e-15 0
177 1 32.9271 2.90143 0 4.11816e-13 3.46112e-14 0
178 1 34.0432 2.90141 0 4.53858e-13 3.21965e-15 0
179 1 35.1593 2.90139 0 3.49217e-13 -3.22242e-14 0
180 1 36.2754 2.90136 0 -3.7271e-13 1.93456e-14 0
181 1 37.3915 2.90134 0 5.16857e-13 -2.35922e-15 0
182 1 38.5076 2.90131 0 -3.20318e-13 -3.29181e-14 0
183 1 39.6237 2.90129 0 4.01625e-13 2.24543e-14 0
184 1 40.7398 2.90126 0 4.57648e-13 -2.1122e-14 0
185 1 41.856 2.90123 0 4.41956e-13 -1.85962e-14 0
186 1 42.9722 2.9012 0 6.11917e-13 -1.09635e-14 0
187 1 44.0884 2.90117 0 3.08037e-13 3.88578e-15 0
188 1 45.2046 2.90114 0 4.96434e-13 -2.73115e-14 0
189 1 46.3208 2.90111 0 2.54346e-13 2.68119e-14 0
190 1 47.437 2.9011 0 3.69168e-14 1.21847e-14 0
191 1 48.5532 2.90111 0 1.96637e-13 3.94684e-14 0
192 1 49.6693 2.90118 0 -3.01551e-13 4.91829e-14 0
193 1 50.7854 2.90135 0 -4.83957e-14 1.85407e-14 0
194 1 51.9012 2.90179 0 2.62489e-13 -2.09832e-14 0
195 1 53.0166 2.9028 0 4.80349e-14 -1.05471e-15 0
196 1 54.1376 2.90359 0 1.30193e-13 1.71807e-14 0
197 1 0 3.86826 0 0 -3.20438e-14 0
198 1 1.1209 3.86819 0 -6.55032e-15 -2.53131e-14 0
199 1 2.2365 3.86803 0 3.43614e-14 -1.78191e-14 0
200 1 3.35236 3.86793 0 -1.40443e-14 -3.70676e-14 0
201 1 4.46831 3.86788 0 7.45515e-14 1.05749e-14 0
202 1 5.58431 3.86786 0 -4.00513e-14 -2.67564e-14 0
203 1 6.70032 3.86785 0 -1.35725e-14 1.17822e-14 0
204 1 7.81635 3.86785 0 2.34812e-14 2.48274e-14 0
205 1 8.93238 3.86785 0 9.92262e-14 -6.53644e-15 0
206 1 10.0484 3.86786 0 1.23096e-13 1.19765e-14 0
207 1 11.1644 3.86787 0 -1.06165e-13 -2.43278e-14 0
208 1 12.2805 3.86787 0 8.80684e-14 -1.47521e-14 0
209 1 13.3965 3.86788 0 1.26538e-13 -3.55965e-14 0
210 1 14.5125 3.86788 0 -1.02973e-14 -6.93889e-17 0
211 1 15.6286 3.86789 0 -1.23457e-13 -3.30708e-14 0
212 1 16.7446 3.86789 0 1.86406e-13 1.66533e-15 0
213 1 17.8606 3.86789 0 2.17187e-13 -2.07889e-14 0
214 1 18.9766 3.86789 0 -2.27957e-13 4.21052e-14 0
215 1 20.0927 3.86789 0 2.29289e-13 1.85824e-14 0
216 1 21.2087 3.86789 0 2.39669e-13 2.73115e-14 0
217 1 22.3247 3.86789 0 -2.44943e-13 -2.92821e-15 0
218 1 23.4407 3.86788 0 2.55823e-13 1.85962e-15 0
219 1 24.5568 3.86788 0 1.74222e-13 2.73392e-15 0
220 1 25.6728 3.86787 0 6.7224e-14 -3.92464e-14 0
221 1 26.7888 3.86786 0 6.98608e-14 -8.47933e-15 0
222 1 27.9049 3.86784 0 2.88519e-13 1.24345e-14 0
223 1 29.0209 3.86783 0 -9.01224e-14 1.13243e-14 0
224 1 30.1369 3.86781 0 3.63876e-14 1.69309e-14 0
225 1 31.253 3.86779 0 8.9817e-14 -1.73889e-14 0
226 1 32.3691 3.86777 0 3.8089e-13 -3.38618e-15 0
227 1 33.4851 3.86774 0 4.47947e-13 7.61891e-15 0
228 1 34.6012 3.86772 0 -4.93217e-13 -4.02456e-15 0
229 1 35.7173 3.86769 0 1.05749e-13 2.30926e-14 0
230 1 36.8333 3.86766 0 1.90514e-13 7.21645e-16 0
231 1 37.9494 3.86763 0 5.54168e-13 4.06619e-15 0
232 1 39.0655 3.86759 0 4.68847e-13 -9.03444e-15 0
233 1 40.1817 3.86756 0 4.14113e-14 1.34198e-14 0
234 1 41.2978 3.86752 0 -2.89935e-13 3.26128e-14 0
235 1 42.4139 3.86749 0 6.06265e-13 1.55292e-14 0
236 1 43.5301 3.86746 0 1.82465e-13 -2.93099e-14 0
237 1 44.6462 3.86743 0 5.69655e-13 3.88994e-14 0
238 1 45.7624 3.86741 0 2.14884e-13 2.7478e-14 0
239 1 46.8785 3.8674 0 1.41498e-13 -2.33841e-14 0
240 1 47.9947 3.86743 0 1.24456e-13 -1.49603e-14 0
241 1 49.1108 3.8675 0 1.01752e-13 1.37251e-14 0
242 1 50.2268 3.86768 0 3.97071e-13 -2.56323e-14 0
243 1 51.3428 3.86803 0 5.61801e-13 4.18832e-14 0
244 1 52.4588 3.86867 0 -2.34174e-13 4.2466e-15 0
245 1 53.5756 3.86932 0 5.88752e-13 -1.50435e-14 0
246 1 0.561358 4.83453 0 -7.83266e-15 5.4734e-14 0
247 1 1.67818 4.83446 0 1.90972e-14 -6.15896e-14 0
248 1 2.79434 4.83436 0 1.96541e-14 -5.37903e-14 0
249 1 3.91037 4.83429 0 -2.58328e-14 3.05866e-14 0
250 1 5.02637 4.83424 0 5.7035e-15 -4.86278e-14 0
251 1 6.14238 4.83422 0 -4.17281e-14 -2.60625e-14 0
252 1 7.25839 4.83422 0 3.56291e-14 -8.99003e-14 0
253 1 8.37441 4.83421 0 1.11455e-13 -5.01266e-14 0
254 1 9.49043 4.83422 0 1.26968e-13 -6.14786e-14 0
255 1 10.6065 4.83422 0 4.17415e-14 -3.89133e-14 0
256 1 11.7225 4.83423 0 6.12029e-14 1.28508e-14 0
257 1 12.8385 4.83423 0 -3.83952e-14 -2.23432e-14 0
258 1 13.9545 4.83424 0 9.29508e-14 -3.63598e-14 0
259 1 15.0706 4.83424 0 -1.49859e-13 -3.50553e-14 0
260 1 16.1866 4.83425 0 1.8213e-13 -2.22877e-14 0
261 1 17.3026 4.83425 0 1.24915e-13 -2.11497e-14 0
262 1 18.4186 4.83425 0 7.60163e-14 5.08482e-14 0
263 1 19.5347 4.83426 0 2.60718e-13 -9.46465e-15 0
264 1 20.6507 4.83425 0 4.10833e-14 -2.362e-14 0
265 1 21.7667 4.83425 0 8.63595e-14 -4.40759e-14 0
266 1 22.8827 4.83425 0 -4.52238e-14 -3.03091e-14 0
267 1 23.9987 4.83424 0 2.00839e-13 5.11258e-14 0
268 1 25.1148 4.83423 0 -5.22736e-15 -5.30964e-14 0
269 1 26.2308 4.83422 0 1.81126e-13 -7.0971e-14 0
270 1 27.3468 4.8342 0 -3.80243e-15 -5.54834e-14 0
271 1 28.4629 4.83418 0 1.33726e-13 -6.86192e-14 0
272 1 29.5789 4.83416 0 -1.02775e-13 -8.32667e-14 0
273 1 30.6949 4.83414 0 1.06447e-13 -5.68712e-14 0
274 1 31.811 4.83412 0 2.7616e-13 3.97737e-14 0
275 1 32.927 4.83409 0 3.15349e-13 -7.16094e-15 0
276 1 34.0431 4.83406 0 2.52413e-13 -4.77396e-15 0
277 1 35.1592 4.83402 0 -1.56375e-13 -4.08562e-14 0
278 1 36.2752 4.83399 0 1.34337e-13 -2.36478e-14 0
279 1 37.3913 4.83395 0 -1.29584e-14 -5.44287e-14 0
280 1 38.5074 4.83392 0 2.74098e-13 -1.64868e-14 0
281 1 39.6235 4.83388 0 1.60325e-13 -5.49005e-14 0
282 1 40.7396 4.83384 0 9.03695e-14 -4.2133e-14 0
283 1 41.8557 4.8338 0 4.49824e-13 1.27398e-14 0
284 1 42.9718 4.83377 0 1.23146e-13 3.78308e-14 0
285 1 44.0879 4.83374 0 2.35973e-13 -2.48968e-14 0
286 1 45.204 4.83372 0 4.06033e-13 7.13318e-14 0
287 1 46.3201 4.83372 0 8.76799e-14 -5.2125e-14 0
288 1 47.4362 4.83375 0 5.94247e-14 1.7264e-14 0
289 1 48.5523 4.83383 0 3.0026e-13 -6.38656e-14 0
290 1 49.6683 4.83398 0 3.52506e-13 4.28269e-14 0
291 1 50.7842 4.83426 0 3.06127e-13 -2.05669e-14 0
292 1 51.9 4.83471 0 -9.02524e-14 1.4988e-15 0
293 1 53.0157 4.83522 0 5.10997e-13 8.74301e-15 0
294 1 54.1366 4.83571 0 4.02659e-13 -1.82354e-14 0
295 1 0 5.80085 0 0 -5.04319e-14 0
296 1 1.12092 5.80082 0 1.19413e-14 -3.45557e-14 0
297 1 2.23658 5.80076 0 -1.96856e-14 -1.6126e-14 0
298 1 3.35247 5.8007 0 -4.92609e-17 -7.56617e-14 0
299 1 4.46844 5.80064 0 -5.02463e-14 -6.06737e-14 0
300 1 5.58443 5.80061 0 2.17771e-14 -3.77476e-14 0
301 1 6.70043 5.80059 0 1.70031e-14 7.54119e-14 0
302 1 7.81644 5.80058 0 2.58173e-14 1.22957e-13 0
303 1 8.93246 5.80058 0 1.22607e-13 -1.20737e-14 0
304 1 10.0485 5.80058 0 5.58888e-15 -7.4607e-14 0
305 1 11.1645 5.80059 0 2.73719e-14 -4.57689e-14 0
306 1 12.2805 5.80059 0 8.14781e-14 -9.85323e-15 0
307 1 13.3965 5.8006 0 5.49136e-14 6.12288e-14 0
308 1 14.5126 5.8006 0 5.38458e-14 -6.81122e-14 0
309 1 15.6286 5.80061 0 1.11888e-13 4.3604e-14 0
310 1 16.7446 5.80061 0 2.79634e-13 -4.52971e-14 0
311 1 17.8606 5.80062 0 -1.83685e-14 -7.21923e-14 0
312 1 18.9767 5.80062 0 2.43461e-13 -4.2466e-15 0
313 1 20.0927 5.80062 0 -1.01277e-13 -7.97418e-14 0
314 1 21.2087 5.80062 0 1.37185e-13 -3.88856e-14 0
315 1 22.3247 5.80061 0 1.92236e-13 -2.29539e-14 0
316 1 23.4407 5.80061 0 2.02941e-14 2.43694e-14 0
317 1 24.5568 5.8006 0 -3.08751e-13 -3.19189e-15 0
318 1 25.6728 5.80058 0 2.20695e-13 -2.51743e-14 0
319 1 26.7888 5.80057 0 -2.48003e-13 -2.91711e-14 0
320 1 27.9048 5.80055 0 2.71783e-13 -2.91711e-14 0
321 1 29.0208 5.80053 0 4.77396e-15 4.13558e-14 0
322 1 30.1369 5.8005 0 1.1993e-14 8.85958e-14 0
323 1 31.2529 5.80047 0 1.72856e-13 1.96509e-14 0
324 1 32.369 5.80044 0 -1.22395e-13 -7.99361e-15 0
325 1 33.485 5.80041 0 -4.91788e-13 -6.63358e-15 0
326 1 34.6011 5.80037 0 1.77358e-13 1.5099e-14 0
327 1 35.7171 5.80033 0 3.37055e-13 3.79419e-14 0
328 1 36.8332 5.80029 0 5.03351e-13 4.588e-14 0
329 1 37.9492 5.80025 0 -1.05622e-13 -2.60902e-14 0
330 1 39.0653 5.80021 0 2.69838e-13 2.95597e-14 0
331 1 40.1814 5.80017 0 7.91843e-14 -4.3382e-14 0
332 1 41.2975 5.80013 0 -1.21395e-13 -5.20695e-14 0
333 1 42.4136 5.80009 0 2.89769e-13 2.36755e-14 0
334 1 43.5297 5.80006 0 4.68153e-13 3.01426e-14 0
335 1 44.6457 5.80005 0 -4.12971e-13 -1.60982e-14 0
336 1 45.7618 5.80005 0 1.9189e-13 -2.80331e-15 0
337 1 46.8779 5.80008 0 7.02533e-14 2.3842e-14 0
338 1 47.9939 5.80015 0 -3.63619e-13 5.58997e-14 0
339 1 49.1099 5.80028 0 5.34783e-13 -4.12725e-14 0
340 1 50.2259 5.80051 0 -2.58344e-13 -4.52693e-14 0
341 1 51.3419 5.80084 0 4.20832e-13 -2.41196e-14 0
342 1 52.458 5.80124 0 6.30318e-13 -3.55271e-15 0
343 1 53.5749 5.80166 0 5.68416e-13 -3.80251e-15 0
344 1 0.561364 6.76716 0 8.83614e-15 -6.42542e-14 0
345 1 1.6782 6.76713 0 -1.94284e-14 -3.22242e-14 0
346 1 2.7944 6.76708 0 -3.96514e-14 -5.15421e-14 0
347 1 3.91045 6.76703 0 2.28251e-14 -6.3477e-14 0
348 1 5.02646 6.767 0 6.98543e-14 4.32987e-14 0
349 1 6.14247 6.76697 0 -1.43626e-13 -3.31402e-14 0
350 1 7.25848 6.76695 0 1.26781e-13 -1.38389e-13 0
351 1 8.37449 6.76695 0 2.60098e-14 -3.72757e-14 0
352 1 9.4905 6.76695 0 1.19246e-13 -4.01346e-14 0
353 1 10.6065 6.76695 0 -9.45745e-14 -9.52016e-15 0
354 1 11.7225 6.76695 0 8.8238e-14 -6.13398e-14 0
355 1 12.8386 6.76696 0 6.55173e-14 -1.14075e-14 0
356 1 13.9546 6.76696 0 7.52094e-14 -5.25968e-14 0
357 1 15.0706 6.76697 0 1.33881e-13 -3.64431e-14 0
358 1 16.1866 6.76698 0 1.17249e-13 -2.79499e-14 0
359 1 17.3026 6.76698 0 2.80873e-13 -1.01585e-14 0
360 1 18.4187 6.76698 0 2.24026e-13 2.86993e-14 0
361 1 19.5347 6.76698 0 2.08885e-13 -1.06304e-14 0
362 1 20.6507 6.76698 0 2.3113e-13 7.09433e-14 0
363 1 21.7667 6.76698 0 -1.61308e-13 -4.03289e-14 0
364 1 22.8827 6.76697 0 1.63698e-13 2.49523e-14 0
365 1 23.9987 6.76697 0 1.98985e-13 -4.40203e-14 0
366 1 25.1147 6.76695 0 -1.28888e-13 -1.249e-15 0
367 1 26.2308 6.76694 0 6.91318e-14 8.01581e-14 0
368 1 27.3468 6.76692 0 1.51755e-13 -1.43219e-14 0
369 1 28.4628 6.76689 0 1.79946e-14 -3.32789e-14 0
370 1 29.5788 6.76687 0 2.0818e-13 -6.28664e-14 0
371 1 30.6949 6.76684 0 2.58109e-13 -1.64313e-14 0
372 1 31.8109 6.7668 0 2.30692e-13 -3.85803e-14 0
373 1 32.9269 6.76677 0 3.75116e-13 -5.5983e-14 0
374 1 34.043 6.76673 0 -2.81666e-13 -9.02056e-15 0
375 1 35.159 6.76669 0 5.97935e-13 -2.28706e-14 0
376 1 36.2751 6.76664 0 3.01938e-13 -6.90559e-14 0
377 1 37.3911 6.7666 0 1.47812e-13 2.22045e-16 0
378 1 38.5072 6.76655 0 -3.42679e-15 -7.99083e-14 0
379 1 39.6232 6.76651 0 2.19448e-13 9.88098e-15 0
380 1 40.7393 6.76647 0 3.53762e-13 -3.13638e-15 0
381 1 41.8554 6.76643 0 2.91335e-14 7.30527e-14 0
382 1 42.9714 6.7664 0 3.56247e-13 4.1106e-14 0
383 1 44.0875 6.76638 0 3.68131e-13 -5.05151e-15 0
384 1 45.2035 6.76638 0 5.59651e-13 -2.99483e-14 0
385 1 46.3196 6.7664 0 5.80443e-13 -8.79852e-15 0
386 1 47.4356 6.76647 0 4.69273e-14 -2.22877e-14 0
387 1 48.5516 6.76658 0 -5.91136e-13 -3.91354e-15 0
388 1 49.6675 6.76676 0 6.21719e-14 6.67244e-14 0
389 1 50.7835 6.76702 0 3.61495e-13 -8.54872e-15 0
390 1 51.8994 6.76734 0 3.18453e-14 4.77951e-14 0
391 1 53.015 6.76769 0 -1.50285e-13 -3.17524e-14 0
392 1 54.1359 6.76804 0 8.46809e-14 3.47777e-14 0
393 1 0 7.73349 0 0 -2.15244e-14 0
394 1 1.12093 7.73348 0 -1.4988e-14 -3.88856e-14 0
395 1 2.2366 7.73345 0 -2.73392e-14 6.245e-15 0
396 1 3.35252 7.73341 0 1.96232e-14 -3.02813e-14 0
397 1 4.4685 7.73338 0 2.27873e-14 2.73531e-14 0
398 1 5.5845 7.73335 0 1.06304e-14 -1.18988e-13 0
399 1 6.70051 7.73333 0 5.19307e-14 1.20487e-13 0
400 1 7.81652 7.73332 0 3.68039e-14 4.53804e-14 0
401 1 8.93253 7.73331 0 -3.91076e-14 -7.086e-14 0
402 1 10.0485 7.73331 0 8.25728e-14 -6.43652e-14 0
403 1 11.1646 7.73331 0 4.03844e-14 5.15976e-14 0
404 1 12.2806 7.73332 0 -1.10467e-13 -4.07868e-14 0
405 1 13.3966 7.73333 0 1.41304e-13 7.27612e-14 0
406 1 14.5126 7.73333 0 -1.47854e-13 2.89907e-14 0
407 1 15.6286 7.73334 0 2.08999e-14 -1.19071e-14 0
408 1 16.7446 7.73335 0 -7.92144e-14 -4.9058e-14 0
409 1 17.8607 7.73335 0 -6.09235e-14 -6.245e-16 0
410 1 18.9767 7.73335 0 2.11775e-13 -6.23529e-14 0
411 1 20.0927 7.73335 0 1.662e-13 -5.50809e-14 0
412 1 21.2087 7.73335 0 3.63043e-14 -5.07511e-14 0
413 1 22.3247 7.73335 0 2.74503e-13 -2.42306e-14 0
414 1 23.4407 7.73334 0 2.59126e-13 -6.52395e-14 0
415 1 24.5567 7.73333 0 1.44218e-13 -6.26443e-14 0
416 1 25.6727 7.73331 0 -6.57807e-15 2.33147e-14 0
417 1 26.7888 7.73329 0 1.45522e-13 -4.79061e-14 0
418 1 27.9048 7.73327 0 1.46744e-13 2.08861e-14 0
419 1 29.0208 7.73324 0 2.74447e-13 4.03427e-14 0
420 1 30.1368 7.73321 0 2.26763e-13 4.9849e-14 0
421 1 31.2528 7.73318 0 8.84015e-14 1.83187e-15 0
422 1 32.3688 7.73314 0 3.94046e-13 -7.81736e-14 0
423 1 33.4849 7.7331 0 5.61773e-13 5.92582e-14 0
424 1 34.6009 7.73305 0 1.803e-13 5.9508e-14 0
425 1 35.7169 7.733 0 -8.54872e-14 -7.23172e-14 0
426 1 36.833 7.73296 0 -1.68782e-13 2.31343e-14 0
427 1 37.949 7.73291 0 4.47503e-13 1.8624e-14 0
428 1 39.0651 7.73286 0 3.69399e-13 4.66155e-14 0
429 1 40.1811 7.73282 0 2.9346e-13 -2.46192e-14 0
430 1 41.2972 7.73278 0 -2.78999e-13 -7.75074e-14 0
431 1 42.4132 7.73274 0 4.60992e-13 -6.48648e-14 0
432 1 43.5293 7.73272 0 6.09957e-13 -3.89272e-14 0
433 1 44.6453 7.73272 0 2.89713e-13 -6.38378e-15 0
434 1 45.7613 7.73274 0 -1.62759e-13 2.42306e-14 0
435 1 46.8773 7.73279 0 8.2323e-14 -4.95437e-14 0
436 1 47.9933 7.73288 0 5.83061e-13 1.70003e-14 0
437 1 49.1093 7.73302 0 5.26745e-13 3.98293e-14 0
438 1 50.2253 7.73323 0 6.02934e-13 5.03902e-14 0
439 1 51.3413 7.73349 0 -5.68295e-13 4.44089e-15 0
440 1 52.4575 7.73378 0 3.34482e-13 7.04853e-14 0
441 1 53.5743 7.73408 0 6.11665e-13 1.27398e-14 0
442 1 0.561369 8.69982 0 -9.19075e-15 -1.26676e-13 0
443 1 1.67821 8.6998 0 1.77913e-14 -1.28064e-13 0
444 1 2.79442 8.69978 0 -1.6015e-14 -2.68674e-14 0
445 1 3.91048 8.69975 0 7.05824e-14 7.16094e-15 0
446 1 5.02651 8.69972 0 -1.2465e-13 -7.71605e-15 0
447 1 6.14252 8.6997 0 1.4988e-13 3.63459e-14 0
448 1 7.25854 8.69969 0 -1.24067e-13 -1.28508e-14 0
449 1 8.37455 8.69968 0 1.09468e-13 -4.0537e-14 0
450 1 9.49056 8.69968 0 -1.3517e-13 5.08205e-14 0
451 1 10.6066 8.69968 0 4.84612e-14 -1.11716e-13 0
452 1 11.7226 8.69968 0 6.93889e-14 -1.23138e-13 0
453 1 12.8386 8.69969 0 -1.35225e-13 -1.66533e-16 0
454 1 13.9546 8.6997 0 -2.28428e-14 2.44804e-14 0
455 1 15.0706 8.6997 0 4.72955e-14 -9.09828e-14 0
456 1 16.1867 8.69971 0 1.84769e-13 -2.27596e-15 0
457 1 17.3027 8.69972 0 3.81917e-14 -8.32667e-15 0
458 1 18.4187 8.69972 0 -9.99201e-14 -1.46633e-13 0
459 1 19.5347 8.69972 0 2.86715e-13 -9.10799e-14 0
460 1 20.6507 8.69972 0 1.30146e-13 7.03604e-15 0
461 1 21.7667 8.69972 0 6.29774e-14 3.59573e-14 0
462 1 22.8827 8.69972 0 2.44638e-13 -7.37049e-14 0
463 1 23.9987 8.69971 0 5.30687e-14 -1.85962e-14 0
464 1 25.1147 8.69969 0 1.59067e-13 -3.34732e-14 0
465 1 26.2307 8.69967 0 1.26926e-13 -7.2331e-14 0
466 1 27.3467 8.69965 0 1.14159e-13 -5.88418e-14 0
467 1 28.4627 8.69962 0 6.95555e-14 -1.22943e-13 0
468 1 29.5788 8.69959 0 1.10245e-13 -1.59886e-13 0
469 1 30.6948 8.69956 0 1.47465e-13 -7.76323e-14 0
470 1 31.8108 8.69952 0 1.30174e-13 -1.3517e-14 0
471 1 32.9268 8.69947 0 -2.59209e-13 -4.60604e-14 0
472 1 34.0428 8.69942 0 2.435e-13 -1.45078e-13 0
473 1 35.1588 8.69938 0 1.3517e-13 -4.9849e-14 0
474 1 36.2749 8.69933 0 7.20257e-14 -5.55112e-17 0
475 1 37.3909 8.69927 0 5.39402e-13 -1.48437e-13 0
476 1 38.5069 8.69922 0 3.57103e-13 5.40679e-14 0
477 1 39.623 8.69918 0 -2.08722e-14 -1.08136e-13 0
478 1 40.739 8.69913 0 3.53828e-13 -1.54043e-14 0
479 1 41.855 8.6991 0 -1.30618e-13 4.45755e-14 0
480 1 42.971 8.69907 0 5.44564e-14 -5.68018e-14 0
481 1 44.0871 8.69906 0 -2.77806e-13 -1.57596e-13 0
482 1 45.2031 8.69907 0 -4.73233e-14 -1.94844e-14 0
483 1 46.3191 8.69911 0 5.31658e-13 1.21347e-13 0
484 1 47.4351 8.69918 0 -9.7311e-14 4.7129e-14 0
485 1 48.551 8.6993 0 -2.56295e-13 1.34337e-14 0
486 1 49.667 8.69946 0 5.05457e-13 -2.87548e-14 0
487 1 50.783 8.69967 0 -2.62762e-13 -4.65739e-14 0
488 1 51.8988 8.69991 0 2.31454e-13 1.34198e-13 0
489 1 53.0145 8.70017 0 4.1725e-13 -7.7563e-14 0
490 1 54.1354 8.70043 0 1.60233e-13 8.36275e-14 0
491 1 0 9.66615 0 0 -9.75331e-14 0
492 1 1.12093 9.66614 0 5.22011e-15 -1.04999e-13 0
493 1 2.23661 9.66613 0 3.42897e-14 -3.1225e-14 0
494 1 3.35254 9.66611 0 -9.59671e-15 -9.99201e-14 0
495 1 4.46853 9.66609 0 1.37114e-14 -1.36779e-13 0
496 1 5.58454 9.66607 0 6.97207e-14 7.61891e-14 0
497 1 6.70055 9.66605 0 -6.52646e-14 -1.5779e-13 0
498 1 7.81657 9.66605 0 3.77017e-14 -9.74498e-14 0
499 1 8.93258 9.66604 0 6.18536e-14 -1.30035e-13 0
500 1 10.0486 9.66604 0 2.7709e-14 -6.75848e-14 0
501 1 11.1646 9.66605 0 1.12963e-13 -1.33171e-13 0
502 1 12.2806 9.66605 0 8.46415e-14 3.27516e-14 0
503 1 13.3966 9.66606 0 3.61051e-15 -1.13964e-13 0
504 1 14.5126 9.66607 0 1.00448e-13 -4.32432e-14 0
505 1 15.6287 9.66608 0 -7.00137e-15 5.10703e-15 0
506 1 16.7447 9.66608 0 1.36322e-13 7.54119e-14 0
507 1 17.8607 9.66609 0 -5.24437e-14 -1.20459e-13 0
508 1 18.9767 9.6661 0 2.03436e-13 -1.2651e-13 0
509 1 20.0927 9.6661 0 -2.63228e-13 -1.04722e-13 0
510 1 21.2087 9.6661 0 1.23368e-13 -3.03646e-14 0
511 1 22.3247 9.66609 0 -3.03643e-14 9.25093e-14 0
512 1 23.4407 9.66609 0 -1.07203e-13 -2.77001e-14 0
513 1 24.5567 9.66607 0 -2.45817e-14 -6.65301e-14 0
514 1 25.6727 9.66606 0 2.18188e-13 8.95117e-14 0
515 1 26.7887 9.66604 0 6.79671e-15 4.8711e-14 0
516 1 27.9047 9.66601 0 2.27721e-13 -2.3731e-14 0
517 1 29.0207 9.66598 0 2.46572e-13 9.65061e-14 0
518 1 30.1367 9.66594 0 -4.78318e-14 -1.35836e-13 0
519 1 31.2527 9.6659 0 2.5799e-13 -1.42164e-13 0
520 1 32.3687 9.66586 0 2.50067e-13 7.03881e-14 0
521 1 33.4847 9.66581 0 3.30865e-13 2.40918e-14 0
522 1 34.6008 9.66576 0 -5.80936e-13 9.10105e-14 0
523 1 35.7168 9.6657 0 7.92005e-15 1.10273e-13 0
524 1 36.8328 9.66565 0 3.96785e-13 6.60583e-15 0
525 1 37.9488 9.6656 0 5.58658e-14 2.52576e-14 0
526 1 39.0648 9.66555 0 3.44662e-13 -1.31534e-13 0
527 1 40.1808 9.6655 0 6.22576e-13 7.7105e-14 0
528 1 41.2969 9.66546 0 1.50513e-13 1.36668e-13 0
529 1 42.4129 9.66543 0 -1.22686e-14 2.43694e-14 0
530 1 43.5289 9.66541 0 3.3681e-13 -8.32667e-16 0
531 1 44.6449 9.66541 0 -7.65862e-15 9.8227e-14 0
532 1 45.7609 9.66544 0 2.43151e-13 -1.06415e-13 0
533 1 46.8769 9.66549 0 4.84305e-13 -1.19488e-13 0
534 1 47.9928 9.66558 0 3.85652e-13 -1.65895e-13 0
535 1 49.1088 9.66571 0 -4.49294e-13 -6.59472e-14 0
536 1 50.2248 9.66588 0 2.61749e-13 1.25178e-14 0
537 1 51.3408 9.66607 0 6.18759e-13 1.09607e-13 0
538 1 52.457 9.66629 0 -6.87795e-13 -6.33937e-14 0
539 1 53.5738 9.66652 0 3.3151e-13 1.09746e-13 0
540 1 0.561373 10.6325 0 1.28231e-14 -1.32477e-13 0
541 1 1.67822 10.6325 0 -2.95042e-14 -1.3535e-13 0
542 1 2.79443 10.6325 0 6.245e-15 4.75037e-14 0
543 1 3.9105 10.6324 0 -2.94209e-15 5.05151e-15 0
544 1 5.02654 10.6324 0 -7.53009e-14 1.84436e-14 0
545 1 6.14256 10.6324 0 9.04832e-15 -9.03444e-14 0
546 1 7.25858 10.6324 0 5.23193e-14 1.56306e-13 0
547 1 8.3746 10.6324 0 3.35565e-14 7.358e-14 0
548 1 9.49061 10.6324 0 1.31839e-13 -8.69721e-14 0
549 1 10.6066 10.6324 0 -8.29892e-15 -4.10366e-14 0
550 1 11.7226 10.6324 0 7.68829e-15 1.113e-14 0
551 1 12.8387 10.6324 0 -2.17604e-14 5.77316e-14 0
552 1 13.9547 10.6324 0 1.47299e-13 -2.87964e-14 0
553 1 15.0707 10.6324 0 -9.3342e-14 -3.1794e-14 0
554 1 16.1867 10.6325 0 8.83738e-14 -4.84057e-14 0
555 1 17.3027 10.6325 0 2.2593e-13 -1.47285e-13 0
556 1 18.4187 10.6325 0 2.27873e-13 1.08774e-13 0
557 1 19.5347 10.6325 0 1.52461e-13 1.38514e-13 0
558 1 20.6507 10.6325 0 -1.61871e-13 1.08927e-13 0
559 1 21.7667 10.6325 0 2.64122e-13 -1.33948e-13 0
560 1 22.8827 10.6325 0 -1.68476e-13 -7.78266e-14 0
561 1 23.9987 10.6325 0 1.5149e-13 -7.85344e-14 0
562 1 25.1147 10.6324 0 -1.44884e-14 -1.41512e-13 0
563 1 26.2307 10.6324 0 8.41271e-14 -9.99617e-14 0
564 1 27.3467 10.6324 0 -2.09027e-13 -8.12961e-14 0
565 1 28.4627 10.6324 0 1.75165e-13 -1.43621e-13 0
566 1 29.5787 10.6323 0 1.50852e-13 7.87703e-14 0
567 1 30.6947 10.6323 0 1.20959e-13 -2.91295e-14 0
568 1 31.8107 10.6322 0 1.38195e-13 -9.48686e-14 0
569 1 32.9267 10.6322 0 4.24633e-13 -2.84078e-14 0
570 1 34.0427 10.6321 0 6.12094e-13 -3.21548e-14 0
571 1 35.1587 10.6321 0 -4.26881e-14 -1.44135e-13 0
572 1 36.2747 10.632 0 2.19019e-13 -1.77414e-13 0
573 1 37.3907 10.632 0 1.9193e-13 -7.11375e-14 0
574 1 38.5067 10.6319 0 2.57017e-14 1.04083e-15 0
575 1 39.6227 10.6319 0 5.56305e-13 -5.66908e-14 0
576 1 40.7387 10.6318 0 -3.3637e-13 -1.43996e-13 0
577 1 41.8547 10.6318 0 2.86826e-13 -1.5403e-13 0
578 1 42.9707 10.6318 0 3.94129e-15 -1.55265e-13 0
579 1 44.0867 10.6318 0 5.72598e-13 -7.75213e-14 0
580 1 45.2027 10.6318 0 1.42719e-13 -6.2908e-14 0
581 1 46.3187 10.6318 0 7.47458e-14 3.83998e-14 0
582 1 47.4347 10.6319 0 3.80779e-13 -2.96291e-14 0
583 1 48.5506 10.632 0 -1.23956e-13 1.09815e-13 0
584 1 49.6666 10.6321 0 5.08926e-13 -1.04403e-13 0
585 1 50.7826 10.6323 0 5.32407e-13 6.64468e-14 0
586 1 51.8984 10.6324 0 1.81771e-13 -3.3909e-13 0
587 1 53.0141 10.6326 0 5.51606e-13 8.50986e-14 0
588 1 54.135 10.6328 0 2.39252e-13 -1.49325e-14 0
589 1 0 11.5988 0 0 -8.95395e-14 0
590 1 1.12094 11.5988 0 -7.01198e-15 2.54796e-14 0
591 1 2.23662 11.5988 0 4.10009e-15 -5.7454e-14 0
592 1 3.35255 11.5988 0 3.04562e-14 -8.39884e-14 0
593 1 4.46855 11.5988 0 -2.45339e-14 -1.19654e-13 0
594 1 5.58457 11.5988 0 5.52686e-14 -3.48055e-14 0
595 1 6.70059 11.5988 0 1.74021e-14 -2.24265e-14 0
596 1 7.81661 11.5988 0 3.42148e-14 -1.08052e-13 0
597 1 8.93263 11.5988 0 -3.37467e-14 -4.05231e-15 0
598 1 10.0486 11.5988 0 6.06273e-14 -8.00748e-14 0
599 1 11.1647 11.5988 0 -2.19843e-14 2.82552e-14 0
600 1 12.2807 11.5988 0 6.60654e-14 3.94407e-14 0
601 1 13.3967 11.5988 0 6.9969e-14 1.90126e-14 0
602 1 14.5127 11.5988 0 -3.31824e-14 -6.85563e-14 0
603 1 15.6287 11.5988 0 -3.4262e-14 3.53328e-14 0
604 1 16.7447 11.5988 0 -1.62272e-13 -6.91947e-14 0
605 1 17.8607 11.5988 0 2.6905e-13 -1.02612e-13 0
606 1 18.9767 11.5988 0 -2.74761e-13 -7.77989e-14 0
607 1 20.0927 11.5989 0 -2.28373e-14 2.9976e-15 0
608 1 21.2087 11.5989 0 8.29285e-15 8.62921e-14 0