ITEM: TIMESTEP
10000
ITEM: NUMBER OF ATOMS
2450
ITEM: BOX BOUNDS ff ff pp
-5.0000000000000000e+00 5.9439409343004591e+01
-5.0000000000000000e+00 5.2631951782371807e+01
-1.0000000000000000e+01 1.0000000000000000e+01
ITEM: ATOMS id type x y z fx fy fz
1 1 0 0 0 0 0 0
2 1 1.12144 0 0 1.07932e-15 0 0
3 1 2.2396 0 0 -8.38033e-15 0 0
4 1 3.3576 0 0 1.09023e-14 0 0
5 1 4.47549 0 0 1.53783e-14 0 0
6 1 5.59331 0 0 -5.8281e-14 0 0
7 1 6.7111 0 0 -6.5864e-14 0 0
8 1 7.82885 0 0 -5.83936e-14 0 0
9 1 8.94659 0 0 -7.63364e-14 0 0
10 1 10.0643 0 0 8.34023e-14 0 0
11 1 11.182 0 0 -1.46305e-13 0 0
12 1 12.2997 0 0 -1.42207e-13 0 0
13 1 13.4174 0 0 -1.56261e-13 0 0
14 1 14.5351 0 0 -1.02361e-13 0 0
15 1 15.6528 0 0 -6.69995e-14 0 0
16 1 16.7705 0 0 -1.96736e-13 0 0
17 1 17.8882 0 0 -2.76112e-13 0 0
18 1 19.0059 0 0 -2.49582e-13 0 0
19 1 20.1235 0 0 1.24879e-13 0 0
20 1 21.2412 0 0 -7.65183e-14 0 0
21 1 22.3589 0 0 -3.11243e-14 0 0
22 1 23.4766 0 0 -1.24034e-13 0 0
23 1 24.5943 0 0 -1.90444e-13 0 0
24 1 25.712 0 0 -2.51201e-13 0 0
25 1 26.8296 0 0 2.40448e-14 0 0
26 1 27.9473 0 0 -2.47646e-13 0 0
27 1 29.065 0 0 -3.02189e-13 0 0
28 1 30.1827 0 0 -1.74888e-13 0 0
29 1 31.3004 0 0 8.19439e-14 0 0
30 1 32.4181 0 0 -2.73975e-13 0 0
31 1 33.5359 0 0 -2.06286e-13 0 0
32 1 34.6536 0 0 1.23815e-13 0 0
33 1 35.7713 0 0 -6.1659e-13 0 0
34 1 36.8891 0 0 6.22422e-14 0 0
35 1 38.0069 0 0 -4.46557e-13 0 0
36 1 39.1247 0 0 -5.62426e-13 0 0
37 1 40.2425 0 0 -4.52814e-13 0 0
38 1 41.3603 0 0 3.42559e-13 0 0
39 1 42.4781 0 0 -1.90181e-13 0 0
40 1 43.596 0 0 -8.82813e-15 0 0
41 1 44.7139 0 0 -3.68635e-13 0 0
42 1 45.8319 0 0 -1.8412e-13 0 0
43 1 46.9499 0 0 -2.13317e-13 0 0
44 1 48.0681 0 0 -4.67328e-13 0 0
45 1 49.1863 0 0 -2.64309e-13 0 0
46 1 50.3048 0 0 -5.71621e-13 0 0
47 1 51.4235 0 0 -2.34366e-13 0 0
48 1 52.5429 0 0 -2.28484e-13 0 0
49 1 53.6635 0 0 -1.20182e-13 0 0
50 1 0.563016 0.968907 0 -6.96795e-15 -8.74301e-15 0
51 1 1.68102 0.968274 0 -9.58437e-15 3.02813e-14 0
52 1 2.79889 0.968248 0 -3.14572e-14 -2.85882e-15 0
53 1 3.91672 0.968259 0 -2.7797e-14 8.88178e-16 0
54 1 5.03451 0.968272 0 -3.90492e-14 -1.03528e-14 0
55 1 6.15227 0.968282 0 -4.76013e-14 -2.94209e-15 0
56 1 7.27002 0.96829 0 -6.70705e-14 -7.21645e-15 0
57 1 8.38775 0.968296 0 -9.63681e-15 8.85403e-15 0
58 1 9.50547 0.968301 0 -2.64624e-14 4.55191e-15 0
59 1 10.6232 0.968306 0 -8.37817e-14 -9.57567e-15 0
60 1 11.7409 0.968309 0 1.26883e-13 1.69587e-14 0
61 1 12.8586 0.968312 0 -8.40419e-14 1.17684e-14 0
62 1 13.9763 0.968314 0 3.50187e-14 -6.07847e-15 0
63 1 15.094 0.968316 0 6.94005e-14 1.66533e-16 0
64 1 16.2117 0.968317 0 -1.93911e-13 2.57849e-14 0
65 1 17.3293 0.968319 0 -1.09794e-13 -4.35763e-15 0
66 1 18.447 0.968319 0 -2.00955e-13 3.05311e-15 0
67 1 19.5647 0.96832 0 -2.18753e-13 -7.88258e-15 0
68 1 20.6824 0.96832 0 4.53982e-14 7.74381e-15 0
69 1 21.8001 0.968319 0 -1.22983e-13 -7.29972e-15 0
70 1 22.9177 0.968319 0 -2.30713e-13 9.29812e-15 0
71 1 24.0354 0.968317 0 2.01444e-13 5.93969e-15 0
72 1 25.1531 0.968316 0 -2.90266e-13 -2.7478e-15 0
73 1 26.2708 0.968313 0 -3.05805e-13 -9.71445e-15 0
74 1 27.3885 0.968311 0 -2.25775e-13 4.16334e-15 0
75 1 28.5062 0.968307 0 -2.17858e-13 4.71845e-16 0
76 1 29.6239 0.968304 0 2.77609e-13 -5.66214e-15 0
77 1 30.7416 0.968299 0 -1.18157e-13 1.39055e-14 0
78 1 31.8593 0.968294 0 -1.53417e-13 -5.07927e-15 0
79 1 32.977 0.968289 0 -3.58684e-13 4.13558e-15 0
80 1 34.0947 0.968283 0 -2.28899e-13 -8.60423e-15 0
81 1 35.2125 0.968276 0 -5.69326e-13 -2.7478e-15 0
82 1 36.3302 0.968268 0 -2.59622e-14 -4.85723e-15 0
83 1 37.448 0.96826 0 1.06235e-13 3.35842e-15 0
84 1 38.5657 0.968251 0 -1.01039e-13 -1.85962e-15 0
85 1 39.6835 0.968242 0 9.38847e-14 6.85563e-15 0
86 1 40.8013 0.968231 0 3.4468e-13 9.99201e-16 0
87 1 41.9192 0.96822 0 -2.77009e-13 1.13798e-15 0
88 1 43.037 0.968207 0 -5.394e-13 -5.07927e-15 0
89 1 44.1549 0.968193 0 -1.3173e-13 -6.57807e-15 0
90 1 45.2728 0.968177 0 2.20396e-13 2.47025e-15 0
91 1 46.3908 0.968159 0 5.47455e-13 -6.93889e-15 0
92 1 47.5088 0.968138 0 -2.98192e-13 -1.31006e-14 0
93 1 48.6269 0.968115 0 1.22151e-13 8.71525e-15 0
94 1 49.745 0.968092 0 4.77062e-13 -5.38458e-15 0
95 1 50.8632 0.968083 0 -4.22598e-13 1.05471e-15 0
96 1 51.9813 0.968146 0 -4.59508e-13 4.94049e-15 0
97 1 53.0988 0.968573 0 1.43979e-13 7.13318e-15 0
98 1 54.2203 0.972694 0 -2.01533e-13 2.35922e-15 0
99 1 0 1.93504 0 0 -5.46785e-15 0
100 1 1.12324 1.93453 0 1.12501e-14 -1.07414e-14 0
101 1 2.24053 1.93421 0 1.40548e-15 -1.88738e-15 0
102 1 3.35812 1.93415 0 1.89179e-14 1.98175e-14 0
103 1 4.4758 1.93414 0 -6.98957e-14 2.27596e-15 0
104 1 5.59351 1.93415 0 -1.12987e-14 -8.60423e-16 0
105 1 6.71123 1.93416 0 -4.91734e-14 -9.96425e-15 0
106 1 7.82894 1.93416 0 -6.31002e-14 -4.4964e-15 0
107 1 8.94665 1.93417 0 -1.50519e-13 -1.56819e-14 0
108 1 10.0644 1.93418 0 -6.58392e-14 -1.02973e-14 0
109 1 11.1821 1.93419 0 1.49677e-14 8.85403e-15 0
110 1 12.2998 1.93419 0 -1.39981e-13 5.30131e-15 0
111 1 13.4174 1.9342 0 -1.23092e-13 1.02696e-14 0
112 1 14.5351 1.9342 0 3.83434e-14 -6.27276e-15 0
113 1 15.6528 1.9342 0 -1.55027e-13 6.02296e-15 0
114 1 16.7705 1.93421 0 1.21627e-13 -1.84852e-14 0
115 1 17.8882 1.93421 0 -2.83975e-13 -1.6126e-14 0
116 1 19.0059 1.93421 0 -1.7345e-13 9.9365e-15 0
117 1 20.1235 1.93421 0 -3.14728e-14 -6.93889e-16 0
118 1 21.2412 1.93421 0 -1.75194e-13 -1.08802e-14 0
119 1 22.3589 1.93421 0 -2.35777e-13 -5.93969e-15 0
120 1 23.4766 1.93421 0 2.56674e-13 -1.70697e-14 0
121 1 24.5943 1.9342 0 -2.81561e-13 1.71807e-14 0
122 1 25.7119 1.9342 0 -2.50548e-14 2.41474e-15 0
123 1 26.8296 1.93419 0 -2.19734e-13 1.59317e-14 0
124 1 27.9473 1.93419 0 -1.49339e-13 -1.21014e-14 0
125 1 29.065 1.93418 0 2.19467e-13 1.44329e-14 0
126 1 30.1827 1.93417 0 -8.27375e-14 0 0
127 1 31.3004 1.93416 0 -2.17344e-13 -8.60423e-15 0
128 1 32.4181 1.93415 0 -2.23843e-13 -1.65146e-14 0
129 1 33.5358 1.93414 0 -1.0722e-13 1.32672e-14 0
130 1 34.6536 1.93413 0 1.96579e-13 8.74301e-15 0
131 1 35.7713 1.93412 0 -4.90331e-14 -1.30729e-14 0
132 1 36.889 1.9341 0 -1.46722e-13 -1.37668e-14 0
133 1 38.0068 1.93408 0 -4.8155e-13 -1.14075e-14 0
134 1 39.1246 1.93407 0 2.12441e-13 7.54952e-15 0
135 1 40.2424 1.93405 0 -2.36129e-13 1.28231e-14 0
136 1 41.3602 1.93403 0 -5.30273e-13 -6.60583e-15 0
137 1 42.478 1.934 0 -2.06743e-13 -7.66054e-15 0
138 1 43.5958 1.93398 0 4.04051e-14 3.41394e-15 0
139 1 44.7137 1.93396 0 -5.60648e-13 5.27356e-15 0
140 1 45.8316 1.93393 0 -3.1591e-13 -8.16014e-15 0
141 1 46.9495 1.9339 0 -3.07729e-13 -2.80331e-15 0
142 1 48.0675 1.93388 0 -4.45229e-13 -1.37668e-14 0
143 1 49.1854 1.93387 0 -2.31532e-13 -1.87905e-14 0
144 1 50.3034 1.93391 0 -4.33533e-13 -8.74301e-15 0
145 1 51.4212 1.93405 0 -1.73651e-13 1.79579e-14 0
146 1 52.539 1.93455 0 4.23148e-13 4.30211e-15 0
147 1 53.6568 1.93642 0 -2.6544e-13 1.43219e-14 0
148 1 0.563887 2.90061 0 -3.03009e-16 -3.94129e-14 0
149 1 1.68187 2.90031 0 -8.65441e-15 -1.95954e-14 0
150 1 2.79949 2.90011 0 -7.9515e-16 -1.6348e-14 0
151 1 3.91712 2.90004 0 -1.91725e-14 -1.07969e-14 0
152 1 5.03479 2.90002 0 -4.33152e-14 1.34892e-14 0
153 1 6.15247 2.90002 0 -4.83843e-14 -2.81719e-14 0
154 1 7.27016 2.90002 0 -2.51899e-14 -7.74381e-15 0
155 1 8.38785 2.90003 0 1.24264e-13 -2.33702e-14 0
156 1 9.50555 2.90004 0 -1.36687e-13 -1.83187e-15 0
157 1 10.6232 2.90004 0 -2.0306e-14 -3.95795e-14 0
158 1 11.7409 2.90005 0 -1.01206e-13 -7.85483e-15 0
159 1 12.8586 2.90006 0 8.44405e-14 3.34732e-14 0
160 1 13.9763 2.90006 0 -1.03006e-13 -1.45162e-14 0
161 1 15.094 2.90007 0 -7.70556e-14 -1.75415e-14 0
162 1 16.2117 2.90007 0 1.03574e-13 -1.60427e-14 0
163 1 17.3294 2.90008 0 -2.97172e-13 4.80171e-15 0
164 1 18.447 2.90008 0 2.55156e-13 -2.99205e-14 0
165 1 19.5647 2.90008 0 -1.86303e-13 2.0095e-14 0
166 1 20.6824 2.90008 0 -1.74587e-13 1.83464e-14 0
167 1 21.8001 2.90008 0 -1.77043e-13 1.33227e-14 0
168 1 22.9177 2.90008 0 1.60711e-13 3.35287e-14 0
169 1 24.0354 2.90007 0 -2.08804e-13 -7.52176e-15 0
170 1 25.1531 2.90007 0 1.81768e-13 -4.2466e-15 0
171 1 26.2708 2.90006 0 2.43475e-14 -2.70339e-14 0
172 1 27.3885 2.90005 0 -1.60571e-13 -2.09555e-14 0
173 1 28.5061 2.90004 0 -2.97323e-13 1.59317e-14 0
174 1 29.6238 2.90003 0 -1.24236e-13 -3.15026e-14 0
175 1 30.7415 2.90002 0 -2.29742e-13 -6.93889e-16 0
176 1 31.8592 2.9 0 -2.4182e-13 -1.55431e-15 0
177 1 32.9769 2.89999 0 -2.32255e-13 3.2252e-14 0
178 1 34.0947 2.89997 0 -1.03747e-13 3.88578e-16 0
179 1 35.2124 2.89995 0 -4.42249e-13 -2.6118e-14 0
180 1 36.3301 2.89993 0 -3.68327e-13 1.82354e-14 0
181 1 37.4479 2.89991 0 -1.61638e-13 -7.35523e-15 0
182 1 38.5656 2.89988 0 -3.9826e-13 2.27873e-14 0
183 1 39.6834 2.89986 0 -5.55528e-13 2.35922e-16 0
184 1 40.8012 2.89983 0 2.94986e-13 -1.453e-14 0
185 1 41.919 2.8998 0 4.17472e-13 1.28508e-14 0
186 1 43.0368 2.89977 0 -5.72176e-13 -1.94289e-15 0
187 1 44.1546 2.89974 0 -2.22723e-13 2.3398e-14 0
188 1 45.2724 2.89972 0 1.44867e-13 1.51545e-14 0
189 1 46.3903 2.89969 0 1.07893e-13 -1.36557e-14 0
190 1 47.5081 2.89968 0 -2.07597e-13 -8.29892e-15 0
191 1 48.626 2.89969 0 2.25937e-13 -3.79974e-14 0
192 1 49.7438 2.89975 0 -3.69682e-13 1.54043e-14 0
193 1 50.8615 2.89993 0 4.39883e-13 3.05866e-14 0
194 1 51.9789 2.90037 0 -2.8892e-13 1.82909e-14 0
195 1 53.0959 2.90139 0 -3.04725e-13 1.53488e-14 0
196 1 54.2187 2.90217 0 -5.45355e-13 8.40994e-15 0
197 1 0 3.86639 0 0 -4.0537e-14 0
198 1 1.12352 3.86631 0 -1.89015e-14 1.76248e-14 0
199 1 2.24094 3.86613 0 2.08167e-15 4.07313e-14 0
200 1 3.35848 3.86599 0 -7.35523e-15 1.33643e-14 0
201 1 4.47609 3.86593 0 -6.65856e-14 -3.07393e-14 0
202 1 5.59373 3.8659 0 -6.245e-14 -1.25039e-14 0
203 1 6.7114 3.8659 0 -2.79221e-14 4.7462e-15 0
204 1 7.82907 3.8659 0 -1.96787e-14 1.08524e-14 0
205 1 8.94675 3.8659 0 -1.31201e-13 1.32255e-14 0
206 1 10.0644 3.86591 0 -1.18155e-13 3.48471e-14 0
207 1 11.1821 3.86591 0 -2.63123e-14 1.02696e-14 0
208 1 12.2998 3.86592 0 -8.30724e-14 -2.05114e-14 0
209 1 13.4175 3.86593 0 -8.39329e-14 -1.15324e-14 0
210 1 14.5352 3.86593 0 -1.22069e-13 -2.37033e-14 0
211 1 15.6528 3.86594 0 -4.96825e-15 5.92582e-15 0
212 1 16.7705 3.86594 0 -4.50195e-14 -3.09197e-14 0
213 1 17.8882 3.86595 0 -7.78266e-14 -1.74583e-14 0
214 1 19.0059 3.86595 0 -2.94709e-13 2.35922e-14 0
215 1 20.1235 3.86595 0 1.53211e-14 0 0
216 1 21.2412 3.86595 0 -3.00038e-13 1.74166e-14 0
217 1 22.3589 3.86595 0 -1.1896e-13 -3.29597e-14 0
218 1 23.4766 3.86594 0 -3.00593e-14 -2.89907e-14 0
219 1 24.5942 3.86594 0 2.58682e-13 -2.82274e-14 0
220 1 25.7119 3.86593 0 -1.75804e-13 -3.96072e-14 0
221 1 26.8296 3.86592 0 -2.51993e-13 -2.71727e-14 0
222 1 27.9473 3.86591 0 -2.42417e-13 -2.66454e-14 0
223 1 29.065 3.8659 0 -1.60705e-14 1.1588e-14 0
224 1 30.1827 3.86588 0 -1.76303e-13 -1.36141e-14 0
225 1 31.3004 3.86586 0 1.45051e-13 -3.33206e-14 0
226 1 32.4181 3.86584 0 -3.73257e-13 -2.9407e-14 0
227 1 33.5358 3.86582 0 2.79471e-13 -1.13937e-14 0
228 1 34.6535 3.8658 0 -5.68073e-13 -3.6901e-14 0
229 1 35.7712 3.86577 0 5.81341e-13 9.38138e-15 0
230 1 36.8889 3.86575 0 -5.05873e-13 -1.83048e-14 0
231 1 38.0067 3.86572 0 2.9679e-13 5.55112e-15 0
232 1 39.1244 3.86568 0 -2.0778e-13 -2.57017e-14 0
233 1 40.2422 3.86565 0 -3.16713e-13 -3.83027e-15 0
234 1 41.3599 3.86562 0 -5.41289e-13 2.86993e-14 0
235 1 42.4777 3.86559 0 -2.63095e-13 -2.40363e-14 0
236 1 43.5955 3.86556 0 2.04031e-13 8.18789e-16 0
237 1 44.7133 3.86553 0 -2.7367e-13 -3.55271e-15 0
238 1 45.8311 3.86551 0 -2.5635e-13 -1.37945e-14 0
239 1 46.9489 3.8655 0 -3.97377e-13 -2.06779e-14 0
240 1 48.0667 3.86553 0 -7.29972e-15 -2.16355e-14 0
241 1 49.1844 3.8656 0 -4.05231e-15 4.12587e-14 0
242 1 50.3021 3.86578 0 -3.94046e-13 -1.7833e-14 0
243 1 51.4197 3.86613 0 -4.74953e-13 -8.54872e-15 0
244 1 52.5374 3.86678 0 -5.10675e-13 2.2829e-14 0
245 1 53.6558 3.86742 0 -2.72005e-14 9.96425e-15 0
246 1 0.563923 4.83216 0 6.31441e-15 -1.37945e-14 0
247 1 1.68202 4.83208 0 2.93168e-15 2.73392e-14 0
248 1 2.79972 4.83196 0 -1.54517e-14 -4.04121e-14 0
249 1 3.91736 4.83187 0 -3.43295e-15 -5.00988e-14 0
250 1 5.03499 4.83181 0 -3.88959e-14 -3.71092e-14 0
251 1 6.15264 4.83179 0 -1.27323e-14 -3.08087e-15 0
252 1 7.2703 4.83177 0 -7.59891e-14 -4.79616e-14 0
253 1 8.38797 4.83177 0 6.30116e-14 3.46945e-14 0
254 1 9.50564 4.83177 0 -1.56474e-13 -3.71925e-15 0
255 1 10.6233 4.83178 0 8.94188e-15 5.15143e-14 0
256 1 11.741 4.83179 0 1.0366e-13 2.94209e-15 0
257 1 12.8587 4.83179 0 -1.25486e-14 -5.06539e-14 0
258 1 13.9763 4.8318 0 -1.33886e-13 -2.5091e-14 0
259 1 15.094 4.83181 0 -1.10945e-13 3.67761e-14 0
260 1 16.2117 4.83181 0 -8.61467e-14 1.47382e-14 0
261 1 17.3294 4.83182 0 1.38639e-14 4.68514e-14 0
262 1 18.447 4.83182 0 3.27104e-14 -9.88098e-15 0
263 1 19.5647 4.83182 0 -2.23532e-13 -1.53211e-14 0
264 1 20.6824 4.83182 0 -1.31539e-13 -7.53286e-14 0
265 1 21.8001 4.83182 0 -1.77808e-13 -5.17641e-14 0
266 1 22.9177 4.83182 0 -2.78588e-13 1.15186e-14 0
267 1 24.0354 4.83181 0 -6.77514e-14 7.93809e-15 0
268 1 25.1531 4.8318 0 -2.47541e-13 -8.88178e-15 0
269 1 26.2707 4.83179 0 -7.66082e-14 -5.14033e-14 0
270 1 27.3884 4.83178 0 1.11184e-13 -3.54716e-14 0
271 1 28.5061 4.83177 0 -2.76333e-13 -1.89293e-14 0
272 1 29.6238 4.83175 0 7.97268e-14 -4.42979e-14 0
273 1 30.7415 4.83173 0 -1.69372e-13 1.83742e-14 0
274 1 31.8592 4.83171 0 -6.86369e-15 6.63636e-14 0
275 1 32.9769 4.83168 0 -3.26365e-13 2.94209e-14 0
276 1 34.0946 4.83165 0 -2.2807e-13 6.16174e-14 0
277 1 35.2123 4.83163 0 -5.58971e-16 3.1336e-14 0
278 1 36.33 4.83159 0 -3.29126e-13 -3.45834e-14 0
279 1 37.4477 4.83156 0 1.36159e-13 1.85962e-15 0
280 1 38.5654 4.83153 0 2.55795e-13 -1.94315e-14 0
281 1 39.6832 4.83149 0 -1.51372e-13 -6.88616e-14 0
282 1 40.8009 4.83145 0 4.64932e-13 -7.00551e-14 0
283 1 41.9187 4.83142 0 -3.28585e-14 -7.71327e-14 0
284 1 43.0364 4.83139 0 -2.06215e-13 1.51545e-14 0
285 1 44.1542 4.83136 0 -3.56772e-13 3.63043e-14 0
286 1 45.2719 4.83134 0 7.53058e-14 1.68199e-14 0
287 1 46.3897 4.83134 0 -5.31785e-13 1.02973e-14 0
288 1 47.5074 4.83137 0 1.05499e-13 1.27676e-15 0
289 1 48.6251 4.83145 0 -3.24295e-13 -2.43416e-14 0
290 1 49.7427 4.83161 0 3.31963e-13 4.44089e-15 0
291 1 50.8603 4.83189 0 -4.73238e-13 5.92859e-14 0
292 1 51.9778 4.83234 0 1.08566e-13 -5.51503e-14 0
293 1 53.095 4.83286 0 9.49501e-14 -5.45675e-14 0
294 1 54.2177 4.83334 0 -3.48721e-13 -7.38298e-15 0
295 1 0 5.79798 0 0 -5.49838e-14 0
296 1 1.12355 5.79795 0 1.7336e-14 -1.8846e-14 0
297 1 2.24104 5.79788 0 2.10074e-14 -6.68909e-14 0
298 1 3.35863 5.7978 0 -3.37759e-14 -3.63598e-14 0
299 1 4.47625 5.79773 0 -7.20393e-14 -6.27831e-14 0
300 1 5.59388 5.79769 0 6.9848e-15 3.49443e-14 0
301 1 6.71153 5.79766 0 -3.95818e-14 6.58917e-14 0
302 1 7.82919 5.79765 0 -3.75454e-14 9.21485e-15 0
303 1 8.94685 5.79765 0 2.45592e-16 -8.72635e-14 0
304 1 10.0645 5.79765 0 -5.47382e-14 3.01981e-14 0
305 1 11.1822 5.79766 0 -7.62049e-14 -4.8711e-14 0
306 1 12.2999 5.79766 0 -3.25285e-14 2.26763e-14 0
307 1 13.4175 5.79767 0 6.99992e-14 -5.14588e-14 0
308 1 14.5352 5.79768 0 -3.39933e-14 -2.91434e-14 0
309 1 15.6529 5.79768 0 -5.57628e-15 3.41394e-15 0
310 1 16.7706 5.79769 0 1.26467e-13 2.78111e-14 0
311 1 17.8882 5.79769 0 -8.00403e-14 -5.82867e-14 0
312 1 19.0059 5.7977 0 -1.3056e-13 -5.47618e-14 0
313 1 20.1236 5.7977 0 -4.85178e-14 -7.20812e-14 0
314 1 21.2412 5.7977 0 -1.87218e-13 6.7224e-14 0
315 1 22.3589 5.79769 0 -1.89194e-13 -3.41116e-14 0
316 1 23.4766 5.79769 0 2.15172e-13 2.60902e-14 0
317 1 24.5942 5.79768 0 -8.73715e-14 -4.70179e-14 0
318 1 25.7119 5.79767 0 -3.18347e-13 3.03368e-14 0
319 1 26.8296 5.79766 0 1.15439e-14 -6.73628e-14 0
320 1 27.9472 5.79764 0 -9.37574e-14 7.32747e-15 0
321 1 29.0649 5.79762 0 -2.65411e-13 -4.49363e-14 0
322 1 30.1826 5.7976 0 -2.46175e-13 6.54754e-14 0
323 1 31.3003 5.79758 0 1.08113e-13 -7.11931e-14 0
324 1 32.418 5.79755 0 -4.6403e-14 -3.611e-14 0
325 1 33.5357 5.79752 0 -2.01346e-13 -7.76046e-14 0
326 1 34.6534 5.79749 0 -4.91972e-13 -1.36835e-14 0
327 1 35.7711 5.79745 0 -1.95873e-13 3.06422e-14 0
328 1 36.8888 5.79742 0 -4.80189e-13 -7.92699e-14 0
329 1 38.0065 5.79738 0 1.07886e-13 -3.71508e-14 0
330 1 39.1242 5.79734 0 -5.33046e-13 7.16649e-14 0
331 1 40.2419 5.7973 0 -1.80245e-13 -3.96905e-15 0
332 1 41.3596 5.79726 0 5.69267e-13 -3.78031e-14 0
333 1 42.4774 5.79723 0 7.62778e-14 2.50078e-14 0
334 1 43.5951 5.7972 0 2.55648e-16 -2.40918e-14 0
335 1 44.7128 5.79719 0 -4.835e-13 -2.65066e-14 0
336 1 45.8305 5.79719 0 1.32933e-13 -6.22835e-14 0
337 1 46.9482 5.79722 0 -2.66877e-13 -1.43219e-14 0
338 1 48.0659 5.7973 0 -4.28745e-13 -3.95795e-14 0
339 1 49.1836 5.79743 0 -5.92588e-13 -6.80844e-14 0
340 1 50.3012 5.79766 0 -9.82564e-14 -4.19942e-14 0
341 1 51.4188 5.798 0 -1.96819e-13 -1.85685e-14 0
342 1 52.5366 5.7984 0 -1.30099e-13 2.85605e-14 0
343 1 53.6551 5.79882 0 1.42913e-13 1.02418e-14 0
344 1 0.563933 6.7638 0 1.62658e-14 -5.16254e-15 0
345 1 1.68205 6.76376 0 -3.87318e-14 -3.55271e-14 0
346 1 2.79979 6.7637 0 3.84374e-14 -3.63598e-14 0
347 1 3.91746 6.76364 0 -3.39951e-14 6.70575e-14 0
348 1 5.03511 6.76359 0 3.19067e-14 4.25493e-14 0
349 1 6.15276 6.76356 0 1.13764e-14 -3.03368e-14 0
350 1 7.27041 6.76354 0 -1.02424e-14 -2.10387e-14 0
351 1 8.38807 6.76353 0 -4.63549e-14 -3.0087e-14 0
352 1 9.50573 6.76353 0 1.48873e-13 -3.16414e-14 0
353 1 10.6234 6.76353 0 -9.36865e-14 -4.65461e-14 0
354 1 11.7411 6.76353 0 -1.12659e-13 8.58202e-14 0
355 1 12.8587 6.76354 0 -5.58746e-14 4.60187e-14 0
356 1 13.9764 6.76355 0 -6.94478e-14 -5.41789e-14 0
357 1 15.0941 6.76356 0 -2.38938e-14 1.41276e-14 0
358 1 16.2117 6.76356 0 -7.65967e-14 -3.41394e-14 0
359 1 17.3294 6.76357 0 -7.4086e-14 6.27276e-14 0
360 1 18.4471 6.76357 0 -1.08134e-14 7.74658e-14 0
361 1 19.5647 6.76358 0 -1.83118e-14 7.84373e-14 0
362 1 20.6824 6.76358 0 -1.99706e-13 -1.57097e-14 0
363 1 21.8001 6.76357 0 -2.78259e-13 -6.8473e-14 0
364 1 22.9177 6.76357 0 -2.22136e-13 -5.90639e-14 0
365 1 24.0354 6.76356 0 4.50507e-14 1.57929e-14 0
366 1 25.1531 6.76355 0 -2.82185e-13 -4.95992e-14 0
367 1 26.2707 6.76354 0 -1.77246e-13 -5.83145e-14 0
368 1 27.3884 6.76352 0 -1.86326e-13 -5.79814e-14 0
369 1 28.5061 6.7635 0 -3.16186e-14 3.99958e-14 0
370 1 29.6237 6.76348 0 -2.95148e-13 1.42109e-14 0
371 1 30.7414 6.76346 0 -1.76397e-13 3.24185e-14 0
372 1 31.8591 6.76343 0 1.17241e-13 2.02616e-14 0
373 1 32.9768 6.76339 0 2.70102e-13 8.50708e-14 0
374 1 34.0944 6.76336 0 -5.73263e-13 -5.7121e-14 0
375 1 35.2121 6.76332 0 -2.06382e-13 -8.03801e-14 0
376 1 36.3298 6.76328 0 -1.06442e-13 -2.13163e-14 0
377 1 37.4475 6.76324 0 -3.93572e-13 -3.77476e-15 0
378 1 38.5652 6.7632 0 -4.26106e-13 -6.08402e-14 0
379 1 39.6829 6.76316 0 -5.04113e-15 2.85327e-14 0
380 1 40.8006 6.76312 0 -5.67463e-13 7.01383e-14 0
381 1 41.9183 6.76309 0 -3.04922e-13 -2.20934e-14 0
382 1 43.036 6.76306 0 -4.7965e-13 -7.58837e-14 0
383 1 44.1537 6.76304 0 2.10754e-13 -1.99285e-14 0
384 1 45.2714 6.76305 0 -4.36986e-13 5.82312e-14 0
385 1 46.3891 6.76307 0 3.6785e-13 8.11018e-14 0
386 1 47.5068 6.76314 0 -1.45781e-13 -3.55271e-15 0
387 1 48.6244 6.76325 0 5.49507e-13 -1.77358e-14 0
388 1 49.742 6.76344 0 2.48672e-13 8.96228e-14 0
389 1 50.8596 6.7637 0 -4.83246e-13 -2.88936e-14 0
390 1 51.9771 6.76402 0 -1.53784e-13 -2.96985e-14 0
391 1 53.0944 6.76437 0 -2.79965e-13 -6.24778e-14 0
392 1 54.217 6.76472 0 -5.92262e-13 -2.40086e-14 0
393 1 0 7.72963 0 0 -3.69149e-14 0
394 1 1.12356 7.72962 0 2.83107e-15 3.05589e-14 0
395 1 2.24107 7.72958 0 -3.19189e-15 -4.53249e-14 0
396 1 3.35868 7.72954 0 -3.61655e-14 -3.3834e-14 0
397 1 4.47632 7.72949 0 3.2585e-14 4.7462e-15 0
398 1 5.59397 7.72946 0 -5.9841e-14 -6.80428e-14 0
399 1 6.71162 7.72943 0 1.3517e-14 -1.73611e-14 0
400 1 7.82928 7.72942 0 -3.84137e-14 -7.21645e-15 0
401 1 8.94693 7.72941 0 -2.92544e-14 8.34888e-14 0
402 1 10.0646 7.72941 0 -1.10995e-13 -6.28664e-15 0
403 1 11.1823 7.72941 0 -1.12799e-13 -4.92245e-14 0
404 1 12.2999 7.72942 0 6.35048e-14 -6.54199e-14 0
405 1 13.4176 7.72942 0 -1.11744e-13 -3.14609e-14 0
406 1 14.5353 7.72943 0 -5.15143e-14 -5.60663e-15 0
407 1 15.6529 7.72944 0 -3.19744e-14 -2.52715e-14 0
408 1 16.7706 7.72944 0 -1.01197e-13 -7.48013e-14 0
409 1 17.8882 7.72945 0 -2.72338e-13 -7.57588e-14 0
410 1 19.0059 7.72945 0 -2.77556e-13 -5.57332e-14 0
411 1 20.1236 7.72946 0 1.60982e-15 5.63577e-14 0
412 1 21.2412 7.72946 0 -2.02949e-13 1.58207e-14 0
413 1 22.3589 7.72945 0 -1.3381e-13 1.92901e-14 0
414 1 23.4765 7.72945 0 2.93099e-14 -9.15934e-15 0
415 1 24.5942 7.72944 0 1.75887e-13 -5.68989e-16 0
416 1 25.7119 7.72942 0 -2.24737e-13 -3.02675e-14 0
417 1 26.8295 7.72941 0 -1.04028e-13 -3.25712e-14 0
418 1 27.9472 7.72939 0 1.33976e-13 -3.14054e-14 0
419 1 29.0649 7.72937 0 -9.67282e-14 -7.29417e-14 0
420 1 30.1825 7.72934 0 -2.59487e-13 -1.02834e-14 0
421 1 31.3002 7.72931 0 -6.86395e-14 -6.65717e-14 0
422 1 32.4179 7.72928 0 -9.12326e-14 3.33344e-14 0
423 1 33.5355 7.72924 0 -1.94816e-13 7.64666e-15 0
424 1 34.6532 7.7292 0 -3.11473e-13 3.53745e-14 0
425 1 35.7709 7.72916 0 -1.67422e-13 -5.16809e-14 0
426 1 36.8886 7.72912 0 3.30624e-13 -1.11022e-14 0
427 1 38.0063 7.72907 0 -4.86639e-13 -6.52256e-15 0
428 1 39.124 7.72903 0 -2.11497e-13 4.81282e-14 0
429 1 40.2416 7.72899 0 1.67366e-14 -2.97817e-14 0
430 1 41.3593 7.72896 0 -4.66738e-13 -1.04916e-14 0
431 1 42.477 7.72893 0 -2.40669e-13 8.31696e-14 0
432 1 43.5947 7.72891 0 -5.2558e-13 4.89886e-14 0
433 1 44.7124 7.72891 0 4.04149e-13 -3.03091e-14 0
434 1 45.83 7.72893 0 -5.37681e-13 -4.94743e-14 0
435 1 46.9477 7.72898 0 -3.19106e-13 2.59376e-14 0
436 1 48.0653 7.72908 0 -4.52083e-13 1.99424e-14 0
437 1 49.1829 7.72922 0 -9.67559e-14 -5.72598e-14 0
438 1 50.3005 7.72943 0 4.5175e-13 -6.41431e-14 0
439 1 51.4182 7.72969 0 1.11022e-13 -3.51108e-15 0
440 1 52.536 7.72998 0 -1.58984e-13 7.67997e-14 0
441 1 53.6545 7.73028 0 -3.0885e-13 -1.89293e-14 0
442 1 0.563939 8.69546 0 -1.15943e-15 -6.77514e-14 0
443 1 1.68206 8.69545 0 -9.02056e-15 -2.19824e-14 0
444 1 2.79982 8.69542 0 8.65974e-15 -1.37945e-13 0
445 1 3.9175 8.69538 0 -2.86993e-14 -7.20535e-14 0
446 1 5.03517 8.69535 0 1.52378e-14 -3.05311e-14 0
447 1 6.15283 8.69532 0 -3.28071e-14 -9.45632e-14 0
448 1 7.27048 8.6953 0 -8.02136e-15 -7.61335e-14 0
449 1 8.38814 8.69529 0 -6.245e-14 1.60982e-14 0
450 1 9.5058 8.69529 0 3.86913e-14 2.47857e-14 0
451 1 10.6235 8.69529 0 -3.26128e-14 -1.13728e-13 0
452 1 11.7411 8.69529 0 -1.51157e-13 9.35085e-14 0
453 1 12.8588 8.6953 0 -7.67997e-14 -2.83107e-14 0
454 1 13.9764 8.69531 0 -5.18752e-14 -8.21565e-14 0
455 1 15.0941 8.69531 0 -1.30479e-13 -1.06859e-13 0
456 1 16.2118 8.69532 0 -7.07212e-14 1.05971e-13 0
457 1 17.3294 8.69533 0 -2.00895e-13 -4.99739e-14 0
458 1 18.4471 8.69533 0 1.39999e-13 -1.93179e-14 0
459 1 19.5647 8.69534 0 -3.0409e-13 3.82611e-14 0
460 1 20.6824 8.69534 0 -1.29563e-13 -1.18752e-13 0
461 1 21.8001 8.69534 0 -1.44912e-13 -1.30951e-13 0
462 1 22.9177 8.69533 0 -6.07847e-14 -7.44821e-14 0
463 1 24.0354 8.69533 0 -5.56499e-14 9.42024e-14 0
464 1 25.153 8.69531 0 -1.73778e-13 -1.0375e-13 0
465 1 26.2707 8.6953 0 -1.36002e-13 2.90878e-14 0
466 1 27.3883 8.69528 0 -2.71866e-13 -1.66533e-15 0
467 1 28.506 8.69526 0 1.98758e-13 -6.32272e-14 0
468 1 29.6237 8.69523 0 -2.30066e-13 1.30174e-13 0
469 1 30.7413 8.6952 0 -1.06526e-13 1.3714e-13 0
470 1 31.859 8.69517 0 1.87073e-14 -4.64073e-14 0
471 1 32.9766 8.69513 0 -3.42559e-13 -1.1359e-13 0
472 1 34.0943 8.69509 0 8.26006e-14 -1.49186e-14 0
473 1 35.212 8.69505 0 -2.99205e-13 5.16254e-15 0
474 1 36.3296 8.695 0 -5.3782e-13 -1.72085e-14 0
475 1 37.4473 8.69496 0 -1.66284e-13 2.38143e-14 0
476 1 38.565 8.69491 0 -4.88526e-13 -7.73825e-14 0
477 1 39.6827 8.69487 0 -3.16636e-13 5.80647e-14 0
478 1 40.8003 8.69483 0 2.04031e-13 -1.51601e-13 0
479 1 41.918 8.6948 0 -3.94157e-13 3.6901e-14 0
480 1 43.0357 8.69478 0 3.94712e-13 -1.3875e-13 0
481 1 44.1533 8.69477 0 -5.63105e-13 -4.42979e-14 0
482 1 45.271 8.69479 0 2.56295e-13 -5.31797e-14 0
483 1 46.3886 8.69483 0 -1.7969e-13 6.73489e-14 0
484 1 47.5063 8.6949 0 -5.36654e-13 3.00315e-14 0
485 1 48.6239 8.69502 0 -8.13793e-14 -8.78742e-14 0
486 1 49.7415 8.69519 0 -2.43222e-13 1.249e-13 0
487 1 50.8591 8.6954 0 -5.72903e-13 -1.23235e-14 0
488 1 51.9766 8.69564 0 2.85549e-13 -1.05652e-13 0
489 1 53.0939 8.6959 0 -4.69513e-13 -1.15227e-13 0
490 1 54.2165 8.69616 0 -4.1997e-13 1.77636e-14 0
491 1 0 9.66131 0 0 -1.03861e-13 0
492 1 1.12357 9.6613 0 -7.8675e-15 -1.00614e-13 0
493 1 2.24108 9.66128 0 -1.69142e-14 -6.50868e-14 0
494 1 3.35871 9.66125 0 3.97628e-14 7.08322e-14 0
495 1 4.47636 9.66123 0 -1.58323e-14 6.88616e-14 0
496 1 5.59402 9.6612 0 -7.02823e-14 -3.747e-14 0
497 1 6.71168 9.66118 0 -7.58999e-14 -1.95399e-14 0
498 1 7.82934 9.66117 0 -3.10018e-14 6.74183e-14 0
499 1 8.947 9.66116 0 -5.49082e-14 -1.20848e-13 0
500 1 10.0647 9.66116 0 -1.60609e-13 -5.33185e-14 0
501 1 11.1823 9.66117 0 9.2014e-14 4.64628e-14 0
502 1 12.3 9.66117 0 -1.56084e-13 -2.43139e-14 0
503 1 13.4176 9.66118 0 5.6321e-14 -1.04972e-13 0
504 1 14.5353 9.66119 0 -9.9082e-14 -4.80171e-14 0
505 1 15.653 9.6612 0 -1.40594e-14 -4.66294e-14 0
506 1 16.7706 9.66121 0 5.77784e-16 -1.43746e-13 0
507 1 17.8883 9.66122 0 4.20138e-14 5.35127e-14 0
508 1 19.0059 9.66122 0 -2.30661e-13 -1.59872e-13 0
509 1 20.1236 9.66122 0 -1.88551e-14 -4.93494e-14 0
510 1 21.2412 9.66122 0 2.53891e-13 9.2204e-14 0
511 1 22.3589 9.66122 0 -4.91159e-14 3.34455e-14 0
512 1 23.4765 9.66122 0 -1.84585e-13 -6.89171e-14 0
513 1 24.5942 9.66121 0 -1.4123e-13 3.60545e-14 0
514 1 25.7118 9.66119 0 -4.88068e-14 1.32255e-13 0
515 1 26.8295 9.66118 0 6.21672e-14 -1.58429e-13 0
516 1 27.9471 9.66115 0 -2.11393e-13 -1.47021e-13 0
517 1 29.0648 9.66113 0 2.83133e-13 -1.54765e-13 0
518 1 30.1824 9.6611 0 -2.05298e-13 -1.12188e-13 0
519 1 31.3001 9.66106 0 2.28631e-13 -7.51343e-14 0
520 1 32.4178 9.66103 0 -4.38313e-13 1.58762e-14 0
521 1 33.5354 9.66099 0 -2.5001e-13 -1.28952e-13 0
522 1 34.6531 9.66094 0 -5.75895e-13 -7.55507e-14 0
523 1 35.7707 9.6609 0 -5.06083e-13 -5.51226e-14 0
524 1 36.8884 9.66085 0 -5.74772e-13 -2.33424e-14 0
525 1 38.0061 9.6608 0 4.92147e-13 8.82627e-14 0
526 1 39.1237 9.66076 0 -5.31785e-13 -1.25649e-13 0
527 1 40.2414 9.66072 0 -2.16134e-13 7.58282e-14 0
528 1 41.359 9.66068 0 -1.92776e-13 8.07132e-14 0
529 1 42.4767 9.66066 0 -4.4652e-13 -7.70495e-14 0
530 1 43.5943 9.66064 0 -2.0124e-14 -1.38944e-13 0
531 1 44.712 9.66065 0 1.81391e-13 5.14866e-14 0
532 1 45.8296 9.66068 0 -3.79058e-13 -3.79419e-14 0
533 1 46.9472 9.66074 0 -3.96833e-13 1.83187e-14 0
534 1 48.0648 9.66083 0 1.60153e-13 5.63438e-15 0
535 1 49.1825 9.66096 0 -2.82424e-13 7.65499e-14 0
536 1 50.3001 9.66113 0 -1.55532e-13 -1.65062e-13 0
537 1 51.4178 9.66133 0 -2.69136e-13 -6.90004e-14 0
538 1 52.5356 9.66155 0 -3.34531e-13 -2.83107e-14 0
539 1 53.6541 9.66178 0 -1.03667e-13 -6.17006e-14 0
540 1 0.563945 10.6271 0 -9.13158e-15 7.27196e-15 0
541 1 1.68207 10.6271 0 -5.4956e-15 -1.40693e-13 0
542 1 2.79983 10.6271 0 2.07612e-14 -9.67837e-14 0
543 1 3.91753 10.6271 0 -3.48332e-14 -1.21264e-13 0
544 1 5.0352 10.6271 0 -6.18672e-14 2.96846e-14 0
545 1 6.15287 10.6271 0 -7.45792e-14 -1.03237e-13 0
546 1 7.27053 10.627 0 -6.44484e-14 -6.77791e-14 0
547 1 8.3882 10.627 0 7.02494e-14 1.43635e-14 0
548 1 9.50586 10.627 0 -1.96509e-14 -2.54935e-14 0
549 1 10.6235 10.627 0 8.13238e-15 -1.19196e-13 0
550 1 11.7412 10.627 0 -1.27232e-13 1.23457e-13 0
551 1 12.8588 10.6271 0 -1.61704e-13 6.78207e-14 0
552 1 13.9765 10.6271 0 -1.31006e-14 -1.51643e-13 0
553 1 15.0941 10.6271 0 -6.95e-14 -1.11369e-13 0
554 1 16.2118 10.6271 0 -2.41057e-13 -2.74364e-14 0
555 1 17.3295 10.6271 0 2.63956e-13 -1.36433e-13 0
556 1 18.4471 10.6271 0 1.30451e-15 4.73233e-15 0
557 1 19.5648 10.6271 0 1.08941e-13 -7.36633e-14 0
558 1 20.6824 10.6271 0 -1.56763e-13 -2.62429e-14 0
559 1 21.8001 10.6271 0 1.31589e-13 6.77652e-14 0
560 1 22.9177 10.6271 0 -1.85296e-13 6.56281e-14 0
561 1 24.0354 10.6271 0 -2.14412e-13 -7.36772e-14 0
562 1 25.153 10.6271 0 6.4837e-14 -1.5847e-13 0
563 1 26.2706 10.6271 0 -2.73254e-13 6.53366e-14 0
564 1 27.3883 10.6271 0 -3.3612e-14 2.33563e-14 0
565 1 28.5059 10.627 0 7.93809e-14 6.62803e-14 0
566 1 29.6236 10.627 0 -2.76446e-14 -8.25451e-14 0
567 1 30.7412 10.627 0 -2.91683e-13 -9.40498e-14 0
568 1 31.8589 10.6269 0 1.07941e-13 1.89432e-14 0
569 1 32.9765 10.6269 0 -1.14825e-13 -1.00198e-14 0
570 1 34.0942 10.6268 0 1.26232e-13 -8.01442e-14 0
571 1 35.2118 10.6268 0 7.86315e-14 -2.89629e-14 0
572 1 36.3295 10.6267 0 -9.05664e-14 4.74204e-14 0
573 1 37.4471 10.6267 0 -5.79925e-13 1.85685e-14 0
574 1 38.5648 10.6267 0 -1.93928e-13 5.12507e-14 0
575 1 39.6824 10.6266 0 1.03972e-13 -1.40082e-13 0
576 1 40.8001 10.6266 0 2.15328e-13 6.63219e-14 0
577 1 41.9177 10.6265 0 -1.76886e-13 1.00198e-14 0
578 1 43.0353 10.6265 0 -1.78302e-13 5.11535e-14 0
579 1 44.153 10.6265 0 -4.52777e-13 -3.42781e-15 0
580 1 45.2706 10.6265 0 1.07164e-13 -6.06459e-15 0
581 1 46.3882 10.6266 0 -2.41446e-13 -5.06539e-14 0
582 1 47.5058 10.6266 0 -3.09752e-13 -4.35207e-14 0
583 1 48.6235 10.6267 0 -3.64625e-13 -5.7121e-14 0
584 1 49.7411 10.6269 0 -5.5933e-13 1.04042e-13 0
585 1 50.8587 10.627 0 -2.24071e-13 -3.51524e-14 0
586 1 51.9762 10.6272 0 2.81636e-13 8.23508e-14 0
587 1 53.0935 10.6274 0 -1.56085e-13 2.53131e-14 0
588 1 54.2161 10.6276 0 -7.01522e-14 -4.50195e-14 0
589 1 0 11.593 0 0 -7.46347e-14 0
590 1 1.12357 11.593 0 -1.15325e-14 -1.97065e-15 0
591 1 2.24109 11.593 0 -1.93413e-14 -1.20848e-13 0
592 1 3.35873 11.593 0 -1.60703e-14 1.05027e-13 0
593 1 4.47639 11.5929 0 -5.16458e-14 7.64389e-14 0
594 1 5.59406 11.5929 0 5.53573e-14 -8.07687e-15 0
595 1 6.71172 11.5929 0 -4.62869e-14 -4.64073e-14 0
596 1 7.82939 11.5929 0 1.48014e-14 6.16451e-14 0
597 1 8.94705 11.5929 0 -1.07543e-13 -1.07081e-13 0
598 1 10.0647 11.5929 0 -1.53088e-13 -3.08364e-14 0
599 1 11.1824 11.5929 0 -8.49393e-14 -9.53682e-14 0
600 1 12.3 11.5929 0 6.26764e-15 -8.69027e-14 0
601 1 13.4177 11.5929 0 -1.34525e-13 -9.15101e-14 0
602 1 14.5353 11.593 0 6.40975e-14 -8.59313e-14 0
603 1 15.653 11.593 0 -7.14461e-14 -1.96787e-14 0