
# LJ reduced units: epsilon = 1, sigma = 1, mass = 1
units lj

# True 2D simulation. LAMMPS requires z-periodicity for dimension 2.
dimension 2

# Simple atomic particles: id, type, x, y, z
atom_style atomic

# Finite in x and y, periodic in z as required for dimension 2
boundary f f p

# Read initial atom positions
read_data lattice_2d_with_defect.data
Reading data file ...
  orthogonal box = (-5 -5 -10) to (59.439409 52.631952 10)
  1 by 1 by 1 MPI processor grid
  reading atoms ...
  2449 atoms
  read_data CPU = 0.009 seconds

# Physical cutoff:
# nearest neighbor distance = a
# second neighbor distance  = sqrt(3)*a
# third neighbor distance   = 2*a
# rc = 1.9*a includes 1st and 2nd neighbors, excludes 3rd neighbors
pair_style lj/cut 2.1326778917878086
pair_coeff 1 1 1.0 1.0 2.1326778917878086

# Neighbor list settings
neighbor 0.3 bin
neigh_modify every 1 delay 0 check yes

# Keep system in the xy-plane
fix keep2d all enforce2d

# ---------------------------------------------------------------
# Boundary condition groups
# ---------------------------------------------------------------
group origin id 1
1 atoms in group origin
group xaxis id 2 3 4 5 6 7 8 9 10 11 12 13 14 15 16 17 18 19 20 21 22 23 24 25 26 27 28 29 30 31 32 33 34 35 36 37 38 39 40 41 42 43 44 45 46 47 48 49
48 atoms in group xaxis
group yaxis id 99 197 295 393 491 589 687 785 883 981 1079 1177 1274 1372 1470 1568 1666 1764 1862 1960 2058 2156 2254 2352
24 atoms in group yaxis

# ---------------------------------------------------------------
# Boundary constraints matching the paper
# origin: fixed in x and y
# x-axis atoms: constrained in y
# y-axis atoms: constrained in x
# ---------------------------------------------------------------

fix fix_origin origin setforce 0.0 0.0 0.0
fix fix_xaxis xaxis setforce NULL 0.0 0.0
fix fix_yaxis yaxis setforce 0.0 NULL 0.0

# Print minimization progress every 100 iterations.
# pe is total potential energy because thermo_modify norm no is used.
thermo 100
thermo_style custom step pe fnorm fmax
thermo_modify norm no

# Start minimization counter at 0
reset_timestep 0

# Write atom trajectory during minimization
dump traj all custom 100 relax_2d_traj_with_defect.lammpstrj id type x y z fx fy fz
dump_modify traj sort id

# Energy minimization
min_style cg
minimize 0.0 9.9999999999999998e-13 10000 100000

CITE-CITE-CITE-CITE-CITE-CITE-CITE-CITE-CITE-CITE-CITE-CITE-CITE

Your simulation uses code contributions which should be cited:

- Type Label Framework: https://doi.org/10.1021/acs.jpcb.3c08419

@Article{Gissinger24,
 author = {Jacob R. Gissinger, Ilia Nikiforov, Yaser Afshar, Brendon Waters, Moon-ki Choi, Daniel S. Karls, Alexander Stukowski, Wonpil Im, Hendrik Heinz, Axel Kohlmeyer, and Ellad B. Tadmor},
 title = {Type Label Framework for Bonded Force Fields in LAMMPS},
 journal = {J. Phys. Chem. B},
 year =    2024,
 volume =  128,
 number =  13,
 pages =   {3282–-3297}
}

CITE-CITE-CITE-CITE-CITE-CITE-CITE-CITE-CITE-CITE-CITE-CITE-CITE

Generated 0 of 0 mixed pair_coeff terms from geometric mixing rule
Neighbor list info ...
  update: every = 1 steps, delay = 0 steps, check = yes
  max neighbors/atom: 2000, page size: 100000
  master list distance cutoff = 2.4326779
  ghost atom cutoff = 2.4326779
  binsize = 1.2163389, bins = 53 48 17
  1 neighbor lists, perpetual/occasional/extra = 1 0 0
  (1) pair lj/cut, perpetual
      attributes: half, newton on
      pair build: half/bin/atomonly/newton
      stencil: half/bin/2d
      bin: standard
Per MPI rank memory allocation (min/avg/max) = 4.186 | 4.186 | 4.186 Mbytes
   Step         PotEng         Fnorm           Fmax     
         0  -7655.989       5.6490141      0.44027575   
       100  -7664.7161      0.74015934     0.040577129  
       200  -7664.7807      0.11598323     0.0065390741 
       300  -7664.7819      0.0067469568   0.00038480271
       400  -7664.7819      0.00060475374  3.6675168e-05
       500  -7664.7819      4.7856911e-05  3.1182675e-06
       600  -7664.7819      5.6590387e-06  3.0911051e-07
       700  -7664.7819      2.7534941e-07  1.5949453e-08
       800  -7664.7819      2.8801179e-08  1.5740055e-09
       900  -7664.7819      1.8346645e-09  1.1625806e-10
      1000  -7664.7819      9.6046337e-11  5.7053112e-12
      1100  -7664.7819      3.8976331e-11  2.6261215e-12
      1200  -7664.7819      3.527252e-11   3.0525467e-12
      1300  -7664.7819      3.3493091e-11  2.5253133e-12
      1400  -7664.7819      3.1483852e-11  2.1009444e-12
      1500  -7664.7819      2.8722743e-11  1.9168125e-12
      1600  -7664.7819      2.0371401e-11  1.6011081e-12
      1700  -7664.7819      1.7036649e-11  1.206063e-12 
      1800  -7664.7819      1.7083273e-11  1.1087242e-12
      1900  -7664.7819      1.6928534e-11  8.9273033e-13
      2000  -7664.7819      1.6558089e-11  9.0000229e-13
      2100  -7664.7819      1.7147791e-11  1.0251244e-12
      2200  -7664.7819      1.6525749e-11  9.5470853e-13
      2300  -7664.7819      1.6544784e-11  1.121353e-12 
      2400  -7664.7819      1.6306106e-11  7.6899598e-13
      2500  -7664.7819      1.6802892e-11  9.6533892e-13
      2600  -7664.7819      1.6367668e-11  8.938128e-13 
      2700  -7664.7819      1.6071431e-11  7.058798e-13 
      2800  -7664.7819      1.6065964e-11  7.7587936e-13
      2900  -7664.7819      1.607216e-11   7.058798e-13 
      3000  -7664.7819      1.6063667e-11  7.058798e-13 
      3100  -7664.7819      1.6064514e-11  7.7587936e-13
      3200  -7664.7819      1.6069847e-11  7.058798e-13 
      3300  -7664.7819      1.606434e-11   7.058798e-13 
      3400  -7664.7819      1.6065336e-11  7.7587936e-13
      3500  -7664.7819      1.607052e-11   7.058798e-13 
      3600  -7664.7819      1.6062785e-11  7.058798e-13 
      3700  -7664.7819      1.6063754e-11  7.7587936e-13
      3800  -7664.7819      1.6070606e-11  7.058798e-13 
      3900  -7664.7819      1.6065221e-11  7.058798e-13 
      4000  -7664.7819      1.6066723e-11  7.7587936e-13
      4100  -7664.7819      1.6071401e-11  7.058798e-13 
      4200  -7664.7819      1.6062134e-11  7.058798e-13 
      4300  -7664.7819      1.6062872e-11  7.7587936e-13
      4400  -7664.7819      1.6068965e-11  7.058798e-13 
      4500  -7664.7819      1.606434e-11   7.058798e-13 
      4600  -7664.7819      1.6065964e-11  7.7587936e-13
      4700  -7664.7819      1.607216e-11   7.058798e-13 
      4800  -7664.7819      1.6063667e-11  7.058798e-13 
      4900  -7664.7819      1.6064514e-11  7.7587936e-13
      5000  -7664.7819      1.6069847e-11  7.058798e-13 
      5100  -7664.7819      1.606434e-11   7.058798e-13 
      5200  -7664.7819      1.6065336e-11  7.7587936e-13
      5300  -7664.7819      1.607052e-11   7.058798e-13 
      5400  -7664.7819      1.6062785e-11  7.058798e-13 
      5500  -7664.7819      1.6063754e-11  7.7587936e-13
      5600  -7664.7819      1.6070606e-11  7.058798e-13 
      5700  -7664.7819      1.6065221e-11  7.058798e-13 
      5800  -7664.7819      1.6066723e-11  7.7587936e-13
      5900  -7664.7819      1.6071401e-11  7.058798e-13 
      6000  -7664.7819      1.6062134e-11  7.058798e-13 
      6100  -7664.7819      1.6062872e-11  7.7587936e-13
      6200  -7664.7819      1.6068965e-11  7.058798e-13 
      6300  -7664.7819      1.606434e-11   7.058798e-13 
      6400  -7664.7819      1.6065964e-11  7.7587936e-13
      6500  -7664.7819      1.607216e-11   7.058798e-13 
      6600  -7664.7819      1.6063667e-11  7.058798e-13 
      6700  -7664.7819      1.6064514e-11  7.7587936e-13
      6800  -7664.7819      1.6069847e-11  7.058798e-13 
      6900  -7664.7819      1.606434e-11   7.058798e-13 
      7000  -7664.7819      1.6065336e-11  7.7587936e-13
      7100  -7664.7819      1.607052e-11   7.058798e-13 
      7200  -7664.7819      1.6062785e-11  7.058798e-13 
      7300  -7664.7819      1.6063754e-11  7.7587936e-13
      7400  -7664.7819      1.6205237e-11  7.3137723e-13
      7500  -7664.7819      1.6192546e-11  1.0460567e-12
      7600  -7664.7819      1.6131631e-11  8.4873321e-13
      7700  -7664.7819      1.6101477e-11  8.4873321e-13
      7800  -7664.7819      1.6118835e-11  8.4873321e-13
      7900  -7664.7819      1.6073098e-11  8.4873321e-13
      8000  -7664.7819      1.6124216e-11  8.4873321e-13
      8100  -7664.7819      1.6093914e-11  8.4873321e-13
      8200  -7664.7819      1.6120744e-11  8.4873321e-13
      8300  -7664.7819      1.6083231e-11  8.4873321e-13
      8400  -7664.7819      1.6112556e-11  8.4873321e-13
      8500  -7664.7819      1.6092834e-11  8.4873321e-13
      8600  -7664.7819      1.6128333e-11  8.4873321e-13
      8700  -7664.7819      1.6075804e-11  8.4873321e-13
      8800  -7664.7819      1.6116368e-11  8.4873321e-13
      8900  -7664.7819      1.6104093e-11  8.4873321e-13
      9000  -7664.7819      1.6116875e-11  8.4873321e-13
      9100  -7664.7819      1.6072936e-11  8.4873321e-13
      9200  -7664.7819      1.6124313e-11  8.4873321e-13
      9300  -7664.7819      1.6089617e-11  8.4873321e-13
      9400  -7664.7819      1.6120893e-11  8.4873321e-13
      9500  -7664.7819      1.6088934e-11  8.4873321e-13
      9600  -7664.7819      1.6102874e-11  8.4873321e-13
      9700  -7664.7819      1.6088519e-11  8.4873321e-13
      9800  -7664.7819      1.6131374e-11  8.4873321e-13
      9900  -7664.7819      1.6079166e-11  8.4873321e-13
     10000  -7664.7819      1.6116188e-11  8.4873321e-13
Loop time of 7.14524 on 1 procs for 10000 steps with 2449 atoms

99.8% CPU use with 1 MPI tasks x 1 OpenMP threads

Minimization stats:
  Stopping criterion = max iterations
  Energy initial, next-to-last, final = 
     -7655.98902606223  -7664.78189174557  -7664.78189174557
  Force two-norm initial, final = 5.6490141 1.6116188e-11
  Force max component initial, final = 0.44027575 8.4873321e-13
  Final line search alpha, max atom move = 1 8.4873321e-13
  Iterations, force evaluations = 10000 20000

MPI task timing breakdown:
Section |  min time  |  avg time  |  max time  |%varavg| %total
---------------------------------------------------------------
Pair    | 5.6716     | 5.6716     | 5.6716     |   0.0 | 79.38
Neigh   | 0.0019366  | 0.0019366  | 0.0019366  |   0.0 |  0.03
Comm    | 0.0024463  | 0.0024463  | 0.0024463  |   0.0 |  0.03
Output  | 0.55988    | 0.55988    | 0.55988    |   0.0 |  7.84
Modify  | 0.1965     | 0.1965     | 0.1965     |   0.0 |  2.75
Other   |            | 0.7129     |            |       |  9.98

Nlocal:           2449 ave        2449 max        2449 min
Histogram: 1 0 0 0 0 0 0 0 0 0
Nghost:              0 ave           0 max           0 min
Histogram: 1 0 0 0 0 0 0 0 0 0
Neighs:          21100 ave       21100 max       21100 min
Histogram: 1 0 0 0 0 0 0 0 0 0

Total # of neighbors = 21100
Ave neighs/atom = 8.6157615
Neighbor list builds = 8
Dangerous builds = 0

# Stop trajectory dump
undump traj

# Write final relaxed configuration.
# This is the file you should compare against your final PINN coordinates.
write_dump all custom relaxed_2d_with_defect.dump id type x y z fx fy fz modify sort id
Total wall time: 0:00:07
