
units lj
dimension 2
atom_style atomic
boundary f f p

read_data lattice_2d_without_defect.data
Reading data file ...
  orthogonal box = (-5 -5 -10) to (59.439409 52.631952 10)
  1 by 1 by 1 MPI processor grid
  reading atoms ...
  2450 atoms
  read_data CPU = 0.006 seconds

# LJ cutoff: rc = 1.9 * spacing
pair_style lj/cut 2.1326778917878086
pair_coeff 1 1 1.0 1.0 2.1326778917878086

neighbor 0.3 bin
neigh_modify every 1 delay 0 check yes

fix keep2d all enforce2d

# ---------------------------------------------------------------
# Boundary condition groups
# ---------------------------------------------------------------
group origin id 1
1 atoms in group origin
group xaxis id 2 3 4 5 6 7 8 9 10 11 12 13 14 15 16 17 18 19 20 21 22 23 24 25 26 27 28 29 30 31 32 33 34 35 36 37 38 39 40 41 42 43 44 45 46 47 48 49
48 atoms in group xaxis
group yaxis id 99 197 295 393 491 589 687 785 883 981 1079 1177 1275 1373 1471 1569 1667 1765 1863 1961 2059 2157 2255 2353
24 atoms in group yaxis
group rightwall id 49 98 147 196 245 294 343 392 441 490 539 588 637 686 735 784 833 882 931 980 1029 1078 1127 1176 1225 1274 1323 1372 1421 1470 1519 1568 1617 1666 1715 1764 1813 1862 1911 1960 2009 2058 2107 2156 2205 2254 2303 2352 2401 2450
50 atoms in group rightwall

# ---------------------------------------------------------------
# Dirichlet constraints
# origin: fixed in x and y
# x-axis atoms: constrained in y
# y-axis atoms: constrained in x
# ---------------------------------------------------------------

fix fix_origin origin setforce 0.0 0.0 0.0
fix fix_xaxis xaxis setforce NULL 0.0 0.0
fix fix_yaxis yaxis setforce 0.0 NULL 0.0

# ---------------------------------------------------------------
# Neumann / force boundary condition
# Apply force_per_atom = [1.0000000000000001e-01, 0.0000000000000000e+00] to each rightwall atom.
# This matches f_ext[right_boundary, :] = force_per_atom in the PINN.
# ---------------------------------------------------------------

fix load_right rightwall addforce 1.0000000000000001e-01 0.0000000000000000e+00 0.0
fix_modify load_right energy yes

# Print minimization progress
thermo 100
thermo_style custom step pe fnorm fmax
thermo_modify norm no

reset_timestep 0

# Write trajectory during minimization
dump traj all custom 100 relax_2d_force_traj.lammpstrj id type x y z fx fy fz
dump_modify traj sort id

# Energy minimization
min_style cg
minimize 0.0 9.9999999999999998e-13 10000 100000

CITE-CITE-CITE-CITE-CITE-CITE-CITE-CITE-CITE-CITE-CITE-CITE-CITE

Your simulation uses code contributions which should be cited:

- Type Label Framework: https://doi.org/10.1021/acs.jpcb.3c08419

@Article{Gissinger24,
 author = {Jacob R. Gissinger, Ilia Nikiforov, Yaser Afshar, Brendon Waters, Moon-ki Choi, Daniel S. Karls, Alexander Stukowski, Wonpil Im, Hendrik Heinz, Axel Kohlmeyer, and Ellad B. Tadmor},
 title = {Type Label Framework for Bonded Force Fields in LAMMPS},
 journal = {J. Phys. Chem. B},
 year =    2024,
 volume =  128,
 number =  13,
 pages =   {3282–-3297}
}

CITE-CITE-CITE-CITE-CITE-CITE-CITE-CITE-CITE-CITE-CITE-CITE-CITE

Generated 0 of 0 mixed pair_coeff terms from geometric mixing rule
Neighbor list info ...
  update: every = 1 steps, delay = 0 steps, check = yes
  max neighbors/atom: 2000, page size: 100000
  master list distance cutoff = 2.4326779
  ghost atom cutoff = 2.4326779
  binsize = 1.2163389, bins = 53 48 17
  1 neighbor lists, perpetual/occasional/extra = 1 0 0
  (1) pair lj/cut, perpetual
      attributes: half, newton on
      pair build: half/bin/atomonly/newton
      stencil: half/bin/2d
      bin: standard
Per MPI rank memory allocation (min/avg/max) = 4.186 | 4.186 | 4.186 Mbytes
   Step         PotEng         Fnorm           Fmax     
         0  -7933.2192      5.3276594      0.44027575   
       100  -7940.6675      0.66222285     0.042807156  
       200  -7940.7016      0.045589242    0.0027271734 
       300  -7940.702       0.0032821253   0.00018134742
       400  -7940.702       0.00038159338  2.1792805e-05
       500  -7940.702       2.6077834e-05  1.70151e-06  
       600  -7940.702       2.6563166e-06  1.4369423e-07
       700  -7940.702       1.0850315e-07  5.9111087e-09
       800  -7940.702       4.1553121e-09  2.0999072e-10
       900  -7940.702       5.1502062e-10  3.0355274e-11
      1000  -7940.702       4.4506158e-11  3.1769027e-12
      1100  -7940.702       3.5769575e-11  2.0840647e-12
      1200  -7940.702       3.3200416e-11  2.4861376e-12
      1300  -7940.702       3.0412009e-11  2.2381264e-12
      1400  -7940.702       2.0848515e-11  1.4930279e-12
      1500  -7940.702       1.6198402e-11  8.3066887e-13
      1600  -7940.702       1.6282255e-11  1.0334511e-12
      1700  -7940.702       1.6319516e-11  1.0123846e-12
      1800  -7940.702       1.6329248e-11  1.0334511e-12
      1900  -7940.702       1.6200227e-11  6.8424433e-13
      2000  -7940.702       1.6259584e-11  1.2107537e-12
      2100  -7940.702       1.6184578e-11  9.6259112e-13
      2200  -7940.702       1.6194999e-11  9.6259112e-13
      2300  -7940.702       1.619499e-11   9.6259112e-13
      2400  -7940.702       1.619136e-11   9.6259112e-13
      2500  -7940.702       1.6194999e-11  9.6259112e-13
      2600  -7940.702       1.619499e-11   9.6259112e-13
      2700  -7940.702       1.619136e-11   9.6259112e-13
      2800  -7940.702       1.6194999e-11  9.6259112e-13
      2900  -7940.702       1.619499e-11   9.6259112e-13
      3000  -7940.702       1.619136e-11   9.6259112e-13
      3100  -7940.702       1.6194999e-11  9.6259112e-13
      3200  -7940.702       1.619499e-11   9.6259112e-13
      3300  -7940.702       1.619136e-11   9.6259112e-13
      3400  -7940.702       1.6194999e-11  9.6259112e-13
      3500  -7940.702       1.619499e-11   9.6259112e-13
      3600  -7940.702       1.619136e-11   9.6259112e-13
      3700  -7940.702       1.6194999e-11  9.6259112e-13
      3800  -7940.702       1.619499e-11   9.6259112e-13
      3900  -7940.702       1.619136e-11   9.6259112e-13
      4000  -7940.702       1.6194999e-11  9.6259112e-13
      4100  -7940.702       1.619499e-11   9.6259112e-13
      4200  -7940.702       1.619136e-11   9.6259112e-13
      4300  -7940.702       1.6194999e-11  9.6259112e-13
      4400  -7940.702       1.619499e-11   9.6259112e-13
      4500  -7940.702       1.619136e-11   9.6259112e-13
      4600  -7940.702       1.6194999e-11  9.6259112e-13
      4700  -7940.702       1.619499e-11   9.6259112e-13
      4800  -7940.702       1.619136e-11   9.6259112e-13
      4900  -7940.702       1.6194999e-11  9.6259112e-13
      5000  -7940.702       1.619499e-11   9.6259112e-13
      5100  -7940.702       1.619136e-11   9.6259112e-13
      5200  -7940.702       1.6194999e-11  9.6259112e-13
      5300  -7940.702       1.619499e-11   9.6259112e-13
      5400  -7940.702       1.619136e-11   9.6259112e-13
      5500  -7940.702       1.6194999e-11  9.6259112e-13
      5600  -7940.702       1.619499e-11   9.6259112e-13
      5700  -7940.702       1.619136e-11   9.6259112e-13
      5800  -7940.702       1.6194999e-11  9.6259112e-13
      5900  -7940.702       1.619499e-11   9.6259112e-13
      6000  -7940.702       1.619136e-11   9.6259112e-13
      6100  -7940.702       1.6194999e-11  9.6259112e-13
      6200  -7940.702       1.619499e-11   9.6259112e-13
      6300  -7940.702       1.619136e-11   9.6259112e-13
      6400  -7940.702       1.6194999e-11  9.6259112e-13
      6500  -7940.702       1.619499e-11   9.6259112e-13
      6600  -7940.702       1.619136e-11   9.6259112e-13
      6700  -7940.702       1.6194999e-11  9.6259112e-13
      6800  -7940.702       1.619499e-11   9.6259112e-13
      6900  -7940.702       1.619136e-11   9.6259112e-13
      7000  -7940.702       1.6194999e-11  9.6259112e-13
      7100  -7940.702       1.619499e-11   9.6259112e-13
      7200  -7940.702       1.619136e-11   9.6259112e-13
      7300  -7940.702       1.6194999e-11  9.6259112e-13
      7400  -7940.702       1.6183652e-11  9.6259112e-13
      7500  -7940.702       1.6186577e-11  9.6259112e-13
      7600  -7940.702       1.6179787e-11  9.6259112e-13
      7700  -7940.702       1.6183652e-11  9.6259112e-13
      7800  -7940.702       1.6186577e-11  9.6259112e-13
      7900  -7940.702       1.6179787e-11  9.6259112e-13
      8000  -7940.702       1.6183652e-11  9.6259112e-13
      8100  -7940.702       1.6186577e-11  9.6259112e-13
      8200  -7940.702       1.6179787e-11  9.6259112e-13
      8300  -7940.702       1.6183652e-11  9.6259112e-13
      8400  -7940.702       1.6186577e-11  9.6259112e-13
      8500  -7940.702       1.6179787e-11  9.6259112e-13
      8600  -7940.702       1.6183652e-11  9.6259112e-13
      8700  -7940.702       1.6186577e-11  9.6259112e-13
      8800  -7940.702       1.6179787e-11  9.6259112e-13
      8900  -7940.702       1.6183652e-11  9.6259112e-13
      9000  -7940.702       1.6186577e-11  9.6259112e-13
      9100  -7940.702       1.6179787e-11  9.6259112e-13
      9200  -7940.702       1.6183652e-11  9.6259112e-13
      9300  -7940.702       1.6186577e-11  9.6259112e-13
      9400  -7940.702       1.6179787e-11  9.6259112e-13
      9500  -7940.702       1.6183652e-11  9.6259112e-13
      9600  -7940.702       1.6186577e-11  9.6259112e-13
      9700  -7940.702       1.6179787e-11  9.6259112e-13
      9800  -7940.702       1.6183652e-11  9.6259112e-13
      9900  -7940.702       1.6186577e-11  9.6259112e-13
     10000  -7940.702       1.6179787e-11  9.6259112e-13
Loop time of 7.68242 on 1 procs for 10000 steps with 2450 atoms

100.0% CPU use with 1 MPI tasks x 1 OpenMP threads

Minimization stats:
  Stopping criterion = max iterations
  Energy initial, next-to-last, final = 
     -7933.21920920864  -7940.70197846416  -7940.70197846416
  Force two-norm initial, final = 5.3276594 1.6179787e-11
  Force max component initial, final = 0.44027575 9.6259112e-13
  Final line search alpha, max atom move = 1 9.6259112e-13
  Iterations, force evaluations = 10000 20000

MPI task timing breakdown:
Section |  min time  |  avg time  |  max time  |%varavg| %total
---------------------------------------------------------------
Pair    | 6.04       | 6.04       | 6.04       |   0.0 | 78.62
Neigh   | 0.0012824  | 0.0012824  | 0.0012824  |   0.0 |  0.02
Comm    | 0.0026812  | 0.0026812  | 0.0026812  |   0.0 |  0.03
Output  | 0.55595    | 0.55595    | 0.55595    |   0.0 |  7.24
Modify  | 0.23726    | 0.23726    | 0.23726    |   0.0 |  3.09
Other   |            | 0.8452     |            |       | 11.00

Nlocal:           2450 ave        2450 max        2450 min
Histogram: 1 0 0 0 0 0 0 0 0 0
Nghost:              0 ave           0 max           0 min
Histogram: 1 0 0 0 0 0 0 0 0 0
Neighs:          21118 ave       21118 max       21118 min
Histogram: 1 0 0 0 0 0 0 0 0 0

Total # of neighbors = 21118
Ave neighs/atom = 8.6195918
Neighbor list builds = 5
Dangerous builds = 0

undump traj

# Write final relaxed configuration
write_dump all custom relaxed_2d_force.dump id type x y z fx fy fz modify sort id
Total wall time: 0:00:07
