ITEM: TIMESTEP
10000
ITEM: NUMBER OF ATOMS
2450
ITEM: BOX BOUNDS ff ff pp
-5.0000000000000000e+00 5.9439409343004591e+01
-5.0000000000000000e+00 5.2631951782371807e+01
-1.0000000000000000e+01 1.0000000000000000e+01
ITEM: ATOMS id type x y z fx fy fz
1 1 0 0 0 0 0 0
2 1 1.11913 0 0 -1.20986e-14 0 0
3 1 2.23541 0 0 3.91351e-14 0 0
4 1 3.35165 0 0 2.53797e-14 0 0
5 1 4.46783 0 0 6.8649e-14 0 0
6 1 5.58397 0 0 -4.48948e-15 0 0
7 1 6.70008 0 0 7.8243e-14 0 0
8 1 7.81617 0 0 1.98382e-14 0 0
9 1 8.93225 0 0 7.01137e-14 0 0
10 1 10.0483 0 0 -1.99264e-14 0 0
11 1 11.1644 0 0 1.34359e-13 0 0
12 1 12.2804 0 0 1.63391e-14 0 0
13 1 13.3965 0 0 -2.16393e-14 0 0
14 1 14.5125 0 0 3.90849e-14 0 0
15 1 15.6285 0 0 1.42641e-13 0 0
16 1 16.7446 0 0 -6.83217e-14 0 0
17 1 17.8606 0 0 2.9465e-13 0 0
18 1 18.9767 0 0 7.70161e-14 0 0
19 1 20.0927 0 0 1.44509e-13 0 0
20 1 21.2087 0 0 1.78281e-13 0 0
21 1 22.3248 0 0 3.0292e-13 0 0
22 1 23.4408 0 0 9.47818e-14 0 0
23 1 24.5568 0 0 2.75197e-13 0 0
24 1 25.6729 0 0 7.51201e-14 0 0
25 1 26.7889 0 0 5.70565e-14 0 0
26 1 27.905 0 0 1.29128e-13 0 0
27 1 29.021 0 0 8.50708e-14 0 0
28 1 30.1371 0 0 1.32644e-13 0 0
29 1 31.2532 0 0 -4.41527e-14 0 0
30 1 32.3692 0 0 6.01171e-13 0 0
31 1 33.4853 0 0 -2.76446e-13 0 0
32 1 34.6014 0 0 -3.53681e-14 0 0
33 1 35.7175 0 0 3.72239e-13 0 0
34 1 36.8336 0 0 2.75127e-13 0 0
35 1 37.9498 0 0 4.73099e-13 0 0
36 1 39.0659 0 0 -2.38423e-14 0 0
37 1 40.1821 0 0 4.97818e-13 0 0
38 1 41.2983 0 0 5.89501e-13 0 0
39 1 42.4145 0 0 2.07362e-13 0 0
40 1 43.5307 0 0 -2.9676e-13 0 0
41 1 44.647 0 0 4.93936e-13 0 0
42 1 45.7633 0 0 5.47601e-13 0 0
43 1 46.8797 0 0 -5.72752e-14 0 0
44 1 47.9962 0 0 1.13086e-14 0 0
45 1 49.1128 0 0 5.14772e-13 0 0
46 1 50.2296 0 0 8.99196e-14 0 0
47 1 51.3467 0 0 1.55359e-13 0 0
48 1 52.4644 0 0 -2.32786e-13 0 0
49 1 53.5834 0 0 6.15813e-13 0 0
50 1 0.560579 0.969294 0 6.81265e-15 -3.55271e-15 0
51 1 1.67734 0.968745 0 -3.61393e-15 -6.66134e-16 0
52 1 2.79366 0.968736 0 -2.54686e-14 -4.66294e-15 0
53 1 3.90985 0.968749 0 3.9097e-16 -1.36002e-15 0
54 1 5.02598 0.96876 0 6.12073e-14 1.03251e-14 0
55 1 6.14208 0.968769 0 -4.21205e-14 3.02536e-15 0
56 1 7.25816 0.968775 0 6.35604e-14 -5.57887e-15 0
57 1 8.37424 0.96878 0 4.63599e-14 2.88658e-15 0
58 1 9.4903 0.968784 0 3.77208e-14 -2.27596e-15 0
59 1 10.6064 0.968787 0 1.44683e-13 -9.02056e-15 0
60 1 11.7224 0.96879 0 4.41628e-14 -9.40914e-15 0
61 1 12.8385 0.968792 0 1.20984e-13 4.96825e-15 0
62 1 13.9545 0.968793 0 1.56279e-13 8.63198e-15 0
63 1 15.0705 0.968795 0 5.32549e-14 -4.02456e-15 0
64 1 16.1866 0.968796 0 1.91361e-13 -2.16493e-15 0
65 1 17.3026 0.968796 0 3.34644e-14 -1.94289e-15 0
66 1 18.4186 0.968796 0 -2.68195e-13 5.2458e-15 0
67 1 19.5347 0.968796 0 8.89444e-14 -4.13558e-15 0
68 1 20.6507 0.968796 0 2.60154e-13 -1.41553e-15 0
69 1 21.7667 0.968795 0 -8.25448e-14 -9.27036e-15 0
70 1 22.8828 0.968793 0 1.6453e-13 3.63598e-15 0
71 1 23.9988 0.968792 0 -2.03296e-13 3.08087e-15 0
72 1 25.1149 0.968789 0 1.80182e-13 -5.02376e-15 0
73 1 26.2309 0.968787 0 1.86677e-13 -9.88098e-15 0
74 1 27.3469 0.968783 0 2.28672e-13 2.13163e-14 0
75 1 28.463 0.96878 0 -2.06182e-14 1.41553e-15 0
76 1 29.5791 0.968775 0 -1.37774e-13 2.77556e-16 0
77 1 30.6951 0.968771 0 1.19402e-13 5.52336e-15 0
78 1 31.8112 0.968765 0 -8.55532e-14 -3.83027e-15 0
79 1 32.9273 0.968759 0 3.99856e-13 -1.22957e-14 0
80 1 34.0433 0.968753 0 2.08019e-13 -1.97897e-14 0
81 1 35.1594 0.968746 0 2.06625e-13 -4.38538e-15 0
82 1 36.2755 0.968738 0 -7.72302e-14 -8.57647e-15 0
83 1 37.3917 0.968729 0 -1.42062e-13 -8.52096e-15 0
84 1 38.5078 0.96872 0 -5.79878e-13 1.19071e-14 0
85 1 39.6239 0.96871 0 -4.93028e-15 -1.11022e-15 0
86 1 40.7401 0.968699 0 3.0531e-13 -3.38618e-15 0
87 1 41.8563 0.968688 0 -2.28736e-13 1.48215e-14 0
88 1 42.9725 0.968675 0 -8.87986e-14 -8.46545e-15 0
89 1 44.0888 0.968661 0 2.42438e-13 1.33504e-14 0
90 1 45.205 0.968644 0 -2.94362e-13 -1.30729e-14 0
91 1 46.3214 0.968626 0 2.07401e-13 7.16094e-15 0
92 1 47.4377 0.968606 0 3.64865e-13 -2.94209e-15 0
93 1 48.5542 0.968583 0 5.5512e-15 4.96825e-15 0
94 1 49.6707 0.96856 0 3.28677e-13 7.49401e-16 0
95 1 50.7872 0.968553 0 4.75356e-13 2.27596e-15 0
96 1 51.9036 0.968617 0 1.00058e-13 -4.32987e-15 0
97 1 53.0195 0.969042 0 -2.43125e-13 7.79932e-15 0
98 1 54.1393 0.973134 0 2.09114e-14 -6.10623e-15 0
99 1 0 1.93589 0 0 -1.3517e-14 0
100 1 1.12067 1.93544 0 -9.3793e-15 7.79932e-15 0
101 1 2.23616 1.93517 0 -2.47433e-14 -4.96825e-15 0
102 1 3.35206 1.93512 0 2.72921e-14 5.68989e-15 0
103 1 4.46808 1.93512 0 -1.17106e-14 -3.88578e-15 0
104 1 5.58413 1.93513 0 5.01996e-14 1.85962e-15 0
105 1 6.70019 1.93513 0 4.37235e-14 3.38618e-15 0
106 1 7.81625 1.93514 0 6.47826e-14 -1.08247e-14 0
107 1 8.9323 1.93515 0 -6.72908e-14 -2.2482e-15 0
108 1 10.0484 1.93515 0 1.81233e-15 -1.90958e-14 0
109 1 11.1644 1.93516 0 1.48723e-13 3.21965e-15 0
110 1 12.2804 1.93516 0 -1.16502e-13 -1.58762e-14 0
111 1 13.3965 1.93517 0 -4.50017e-14 -3.44169e-15 0
112 1 14.5125 1.93517 0 1.91165e-14 -9.6867e-15 0
113 1 15.6286 1.93517 0 1.24416e-13 -1.15741e-14 0
114 1 16.7446 1.93517 0 2.29523e-13 1.20182e-14 0
115 1 17.8606 1.93517 0 -1.04254e-14 4.08007e-15 0
116 1 18.9767 1.93517 0 1.59741e-13 -6.32827e-15 0
117 1 20.0927 1.93517 0 2.72483e-13 1.80411e-15 0
118 1 21.2087 1.93517 0 1.21349e-14 -1.75693e-14 0
119 1 22.3248 1.93517 0 2.29926e-13 4.85723e-15 0
120 1 23.4408 1.93516 0 9.11727e-14 -8.49321e-15 0
121 1 24.5568 1.93516 0 -1.2356e-13 -1.53488e-14 0
122 1 25.6729 1.93516 0 1.86747e-13 -1.7375e-14 0
123 1 26.7889 1.93515 0 2.03917e-13 -1.70974e-14 0
124 1 27.905 1.93514 0 6.97865e-14 1.28231e-14 0
125 1 29.021 1.93514 0 7.41385e-14 -9.96425e-15 0
126 1 30.1371 1.93513 0 2.32967e-13 -1.95954e-14 0
127 1 31.2531 1.93512 0 -8.79041e-14 -3.13638e-15 0
128 1 32.3692 1.93511 0 5.63959e-13 -1.30729e-14 0
129 1 33.4853 1.93509 0 -5.74115e-14 2.12608e-14 0
130 1 34.6014 1.93508 0 3.57863e-13 -8.24341e-15 0
131 1 35.7175 1.93506 0 -2.97449e-13 -1.28231e-14 0
132 1 36.8336 1.93505 0 1.92606e-13 -1.34059e-14 0
133 1 37.9497 1.93503 0 2.48202e-13 -7.54952e-15 0
134 1 39.0658 1.93501 0 4.83212e-13 -6.91114e-15 0
135 1 40.182 1.93499 0 -1.71172e-13 -1.87073e-14 0
136 1 41.2981 1.93497 0 7.65209e-14 -1.08802e-14 0
137 1 42.4143 1.93495 0 1.94314e-13 -1.79579e-14 0
138 1 43.5305 1.93493 0 3.01944e-13 5.30131e-15 0
139 1 44.6468 1.9349 0 2.62887e-13 -5.07927e-15 0
140 1 45.763 1.93488 0 1.03983e-13 1.17406e-14 0
141 1 46.8793 1.93485 0 3.37815e-13 -1.92069e-14 0
142 1 47.9956 1.93483 0 -4.37639e-13 8.63198e-15 0
143 1 49.1119 1.93482 0 6.06729e-13 8.32667e-16 0
144 1 50.2282 1.93485 0 -5.53255e-13 1.60427e-14 0
145 1 51.3444 1.935 0 5.38524e-13 -1.45162e-14 0
146 1 52.4605 1.93549 0 2.54314e-13 1.38778e-14 0
147 1 53.5767 1.93734 0 4.23632e-13 -1.42109e-14 0
148 1 0.561336 2.90198 0 7.6311e-16 -3.74145e-14 0
149 1 1.67805 2.90172 0 1.90208e-14 -2.16493e-14 0
150 1 2.79415 2.90156 0 -2.29848e-14 -1.16573e-15 0
151 1 3.91018 2.90151 0 7.56148e-15 -1.91791e-14 0
152 1 5.0262 2.90149 0 6.97537e-14 3.05311e-16 0
153 1 6.14224 2.90149 0 -3.427e-14 -3.45557e-14 0
154 1 7.25828 2.90149 0 -1.33485e-14 -2.06779e-14 0
155 1 8.37432 2.9015 0 1.58323e-14 2.94209e-15 0
156 1 9.49036 2.9015 0 1.11504e-13 -2.1011e-14 0
157 1 10.6064 2.90151 0 8.74592e-14 -3.00315e-14 0
158 1 11.7224 2.90151 0 6.83526e-14 -2.36755e-14 0
159 1 12.8385 2.90152 0 2.89292e-14 7.21645e-15 0
160 1 13.9545 2.90152 0 4.009e-14 -2.3731e-14 0
161 1 15.0706 2.90152 0 8.63084e-14 -8.16014e-15 0
162 1 16.1866 2.90153 0 2.9371e-13 -3.51386e-14 0
163 1 17.3026 2.90153 0 2.2137e-13 -3.75533e-14 0
164 1 18.4186 2.90153 0 2.62395e-13 -2.51743e-14 0
165 1 19.5347 2.90153 0 4.57625e-14 -1.99563e-14 0
166 1 20.6507 2.90153 0 1.01071e-13 -2.85882e-14 0
167 1 21.7667 2.90152 0 1.70361e-13 1.59317e-14 0
168 1 22.8828 2.90152 0 1.64336e-13 -2.81164e-14 0
169 1 23.9988 2.90152 0 2.4892e-13 -3.88856e-14 0
170 1 25.1148 2.90151 0 2.0181e-13 -2.79499e-14 0
171 1 26.2309 2.9015 0 -1.5977e-14 -1.13243e-14 0
172 1 27.3469 2.90149 0 -4.93783e-14 -3.90799e-14 0
173 1 28.463 2.90148 0 3.12769e-13 -3.42226e-14 0
174 1 29.579 2.90147 0 1.02932e-13 -1.43496e-14 0
175 1 30.6951 2.90145 0 1.41647e-13 -2.55074e-14 0
176 1 31.8111 2.90144 0 8.10486e-14 -6.66134e-16 0
177 1 32.9272 2.90142 0 4.54997e-13 -1.38778e-14 0
178 1 34.0433 2.9014 0 2.63539e-13 -2.15106e-14 0
179 1 35.1594 2.90138 0 -1.14297e-13 2.40363e-14 0
180 1 36.2755 2.90136 0 -2.4482e-14 -1.19904e-14 0
181 1 37.3916 2.90134 0 5.00754e-13 -4.03011e-14 0
182 1 38.5077 2.90131 0 2.39596e-13 -5.13478e-15 0
183 1 39.6238 2.90129 0 5.50984e-13 -7.38298e-15 0
184 1 40.7399 2.90126 0 7.3124e-14 3.3834e-14 0
185 1 41.8561 2.90123 0 5.03479e-13 1.46272e-14 0
186 1 42.9723 2.9012 0 2.17727e-13 6.93889e-16 0
187 1 44.0885 2.90117 0 -1.97394e-13 3.13638e-15 0
188 1 45.2047 2.90114 0 1.26622e-13 -1.34337e-14 0
189 1 46.3209 2.90112 0 1.02509e-13 3.78586e-14 0
190 1 47.4371 2.9011 0 5.96328e-13 -4.32987e-15 0
191 1 48.5533 2.90112 0 -3.7519e-13 -9.29812e-15 0
192 1 49.6694 2.90118 0 5.46394e-14 -1.55709e-14 0
193 1 50.7855 2.90136 0 4.85838e-13 -2.47857e-14 0
194 1 51.9013 2.90179 0 -2.69702e-13 2.43694e-14 0
195 1 53.0167 2.90281 0 -1.27576e-13 -1.8735e-14 0
196 1 54.1377 2.90359 0 4.72026e-13 -3.39728e-14 0
197 1 0 3.86826 0 0 1.60982e-15 0
198 1 1.1209 3.86819 0 6.46705e-15 -1.0561e-14 0
199 1 2.2365 3.86804 0 8.85403e-15 -3.78586e-14 0
200 1 3.35236 3.86793 0 8.04912e-16 2.79637e-14 0
201 1 4.46831 3.86788 0 -2.35922e-15 1.47105e-15 0
202 1 5.58431 3.86786 0 5.70377e-14 -4.57967e-16 0
203 1 6.70033 3.86785 0 4.63241e-14 -3.73868e-14 0
204 1 7.81635 3.86785 0 1.47105e-14 -3.38063e-14 0
205 1 8.93238 3.86786 0 -1.46716e-13 -3.49304e-14 0
206 1 10.0484 3.86786 0 1.08608e-13 -3.40561e-14 0
207 1 11.1645 3.86787 0 1.42941e-13 -1.09635e-14 0
208 1 12.2805 3.86787 0 1.39694e-13 3.67067e-14 0
209 1 13.3965 3.86788 0 8.07965e-14 -2.83246e-14 0
210 1 14.5125 3.86788 0 -3.88578e-16 -3.80945e-14 0
211 1 15.6286 3.86788 0 8.29614e-14 -7.75768e-15 0
212 1 16.7446 3.86789 0 -8.07687e-15 2.56045e-14 0
213 1 17.8606 3.86789 0 -9.40914e-14 -1.58623e-14 0
214 1 18.9767 3.86789 0 5.39291e-14 1.05332e-14 0
215 1 20.0927 3.86789 0 2.58765e-13 -6.60583e-15 0
216 1 21.2087 3.86788 0 -1.78829e-13 -2.30649e-14 0
217 1 22.3248 3.86788 0 5.25968e-14 -9.27036e-15 0
218 1 23.4408 3.86787 0 -1.42109e-14 -1.90542e-14 0
219 1 24.5568 3.86786 0 8.15181e-14 -1.18516e-14 0
220 1 25.6728 3.86786 0 1.54793e-13 4.00652e-14 0
221 1 26.7889 3.86784 0 1.9662e-13 1.62648e-14 0
222 1 27.9049 3.86783 0 1.6373e-13 1.29202e-14 0
223 1 29.021 3.86782 0 -3.1225e-14 1.05194e-14 0
224 1 30.137 3.8678 0 1.81494e-13 -3.98431e-14 0
225 1 31.2531 3.86778 0 9.89748e-14 6.77236e-15 0
226 1 32.3691 3.86776 0 5.22574e-13 3.79141e-14 0
227 1 33.4852 3.86774 0 3.93213e-13 -4.16334e-15 0
228 1 34.6013 3.86771 0 2.75446e-13 -2.87409e-14 0
229 1 35.7173 3.86768 0 1.98896e-13 1.34476e-14 0
230 1 36.8334 3.86765 0 -2.76723e-13 1.78052e-14 0
231 1 37.9495 3.86762 0 3.60184e-13 -4.16334e-15 0
232 1 39.0656 3.86759 0 -2.12663e-13 -2.40086e-14 0
233 1 40.1818 3.86756 0 5.25191e-13 -1.94567e-14 0
234 1 41.2979 3.86753 0 1.5743e-13 -1.67644e-14 0
235 1 42.414 3.86749 0 3.68094e-13 2.7367e-14 0
236 1 43.5302 3.86746 0 4.89164e-13 -3.51108e-15 0
237 1 44.6463 3.86743 0 4.45088e-13 2.22045e-16 0
238 1 45.7625 3.86741 0 -4.27269e-13 -1.08247e-15 0
239 1 46.8786 3.86741 0 2.25375e-14 1.43496e-14 0
240 1 47.9948 3.86743 0 4.45921e-13 -2.72143e-14 0
241 1 49.1109 3.86751 0 1.30729e-13 -8.20177e-15 0
242 1 50.2269 3.86768 0 -4.6374e-13 -2.42306e-14 0
243 1 51.3429 3.86803 0 2.35617e-13 -2.62429e-14 0
244 1 52.4589 3.86867 0 -4.85445e-14 1.28092e-14 0
245 1 53.5757 3.86932 0 3.74419e-13 1.31284e-14 0
246 1 0.561358 4.83454 0 3.81295e-15 -2.28151e-14 0
247 1 1.67818 4.83447 0 -2.55383e-15 2.15383e-14 0
248 1 2.79434 4.83437 0 -1.27838e-14 -2.07057e-14 0
249 1 3.91037 4.83429 0 -2.31751e-14 -6.04516e-14 0
250 1 5.02637 4.83425 0 2.54321e-15 1.40998e-14 0
251 1 6.14238 4.83423 0 2.25445e-14 -3.19744e-14 0
252 1 7.25839 4.83422 0 6.40067e-14 8.32667e-17 0
253 1 8.37441 4.83422 0 1.43495e-13 4.12448e-14 0
254 1 9.49044 4.83422 0 2.66711e-15 1.30729e-14 0
255 1 10.6065 4.83422 0 4.85371e-14 -7.26363e-14 0
256 1 11.7225 4.83423 0 7.12781e-14 -3.25018e-14 0
257 1 12.8385 4.83423 0 -2.20488e-14 -3.41394e-15 0
258 1 13.9546 4.83424 0 4.23929e-14 -6.92224e-14 0
259 1 15.0706 4.83424 0 1.15931e-13 -4.28269e-14 0
260 1 16.1866 4.83424 0 -1.91614e-13 -8.06577e-14 0
261 1 17.3026 4.83425 0 1.88898e-13 -6.38656e-14 0
262 1 18.4187 4.83425 0 2.85908e-13 4.66294e-14 0
263 1 19.5347 4.83425 0 -1.60508e-13 -2.73948e-14 0
264 1 20.6507 4.83424 0 2.04238e-13 -4.30767e-14 0
265 1 21.7667 4.83424 0 -9.7306e-14 7.93809e-15 0
266 1 22.8828 4.83423 0 -2.17934e-13 -4.75175e-14 0
267 1 23.9988 4.83422 0 3.03951e-13 -1.7597e-14 0
268 1 25.1148 4.83421 0 2.30809e-13 -3.98015e-14 0
269 1 26.2309 4.8342 0 -3.12636e-14 -5.39013e-14 0
270 1 27.3469 4.83419 0 1.90527e-13 -6.80289e-14 0
271 1 28.4629 4.83417 0 1.2801e-13 -5.86198e-14 0
272 1 29.579 4.83415 0 2.24594e-13 -2.72005e-14 0
273 1 30.695 4.83413 0 -4.95808e-14 -4.28269e-14 0
274 1 31.8111 4.8341 0 -1.30673e-13 -3.96593e-14 0
275 1 32.9271 4.83408 0 -4.19065e-13 -7.64111e-14 0
276 1 34.0432 4.83405 0 4.89278e-13 -5.03486e-14 0
277 1 35.1592 4.83402 0 -1.47618e-13 -7.64666e-14 0
278 1 36.2753 4.83398 0 2.26874e-13 -2.88658e-14 0
279 1 37.3914 4.83395 0 -4.75317e-14 -2.79499e-14 0
280 1 38.5075 4.83391 0 -4.08906e-13 -5.20139e-14 0
281 1 39.6236 4.83388 0 1.60645e-13 2.9754e-14 0
282 1 40.7397 4.83384 0 -1.55243e-13 -4.2466e-14 0
283 1 41.8558 4.8338 0 5.09215e-13 -2.02893e-14 0
284 1 42.9719 4.83377 0 -2.72617e-13 -4.53526e-14 0
285 1 44.088 4.83374 0 2.31755e-13 -4.75731e-14 0
286 1 45.2041 4.83372 0 -6.06964e-13 -3.36675e-14 0
287 1 46.3202 4.83372 0 3.04451e-13 1.96509e-14 0
288 1 47.4363 4.83375 0 4.374e-13 -1.94289e-14 0
289 1 48.5524 4.83383 0 -2.29607e-13 -3.19467e-14 0
290 1 49.6684 4.83399 0 5.42867e-13 -6.2117e-14 0
291 1 50.7843 4.83427 0 3.67699e-13 2.58127e-14 0
292 1 51.9001 4.83472 0 4.39805e-13 9.02056e-15 0
293 1 53.0158 4.83523 0 -8.8155e-14 3.30291e-14 0
294 1 54.1367 4.83572 0 5.32935e-13 -4.68237e-14 0
295 1 0 5.80085 0 0 -3.89411e-14 0
296 1 1.12092 5.80083 0 9.25956e-15 4.29379e-14 0
297 1 2.23658 5.80077 0 2.27584e-14 -3.64986e-14 0
298 1 3.35247 5.8007 0 -3.05794e-14 -3.16691e-14 0
299 1 4.46844 5.80065 0 6.08052e-14 -6.42264e-14 0
300 1 5.58443 5.80061 0 7.82666e-15 -8.12961e-14 0
301 1 6.70043 5.8006 0 -3.79692e-14 -4.30767e-14 0
302 1 7.81645 5.80059 0 -1.26561e-14 -4.91551e-14 0
303 1 8.93246 5.80058 0 -4.83483e-14 -8.10463e-14 0
304 1 10.0485 5.80058 0 9.48583e-14 7.40519e-14 0
305 1 11.1645 5.80059 0 4.1588e-14 5.81479e-14 0
306 1 12.2805 5.80059 0 1.04421e-13 -5.51781e-14 0
307 1 13.3966 5.8006 0 -2.77099e-14 -2.8727e-14 0
308 1 14.5126 5.8006 0 -1.48606e-13 -5.27078e-14 0
309 1 15.6286 5.8006 0 1.03856e-13 -4.77673e-14 0
310 1 16.7446 5.80061 0 2.83822e-13 2.42584e-14 0
311 1 17.8607 5.80061 0 -1.15353e-13 -5.88141e-14 0
312 1 18.9767 5.80061 0 -9.75373e-14 -9.6867e-15 0
313 1 20.0927 5.80061 0 2.64611e-13 -6.83065e-14 0
314 1 21.2087 5.8006 0 2.15545e-13 -1.76525e-14 0
315 1 22.3247 5.8006 0 8.25778e-14 4.38816e-14 0
316 1 23.4408 5.80059 0 1.97885e-13 1.55986e-14 0
317 1 24.5568 5.80058 0 2.43066e-13 -4.62963e-14 0
318 1 25.6728 5.80056 0 5.00517e-14 -3.23075e-14 0
319 1 26.7888 5.80055 0 -5.29095e-14 -4.19109e-14 0
320 1 27.9049 5.80053 0 3.19401e-13 1.7264e-14 0
321 1 29.0209 5.80051 0 -2.56453e-13 2.3509e-14 0
322 1 30.137 5.80048 0 -4.16149e-14 -7.62168e-14 0
323 1 31.253 5.80046 0 2.9407e-13 2.79082e-14 0
324 1 32.369 5.80043 0 1.4444e-13 -7.28723e-14 0
325 1 33.4851 5.8004 0 0 3.81362e-14 0
326 1 34.6011 5.80036 0 -1.00568e-13 5.97578e-14 0
327 1 35.7172 5.80032 0 6.12188e-13 8.74301e-15 0
328 1 36.8333 5.80029 0 9.57174e-14 -4.45199e-14 0
329 1 37.9493 5.80025 0 -1.08059e-13 -1.27676e-14 0
330 1 39.0654 5.80021 0 -6.87124e-15 -2.7145e-14 0
331 1 40.1815 5.80017 0 5.60385e-13 7.54674e-14 0
332 1 41.2976 5.80013 0 -5.11467e-13 -6.24778e-14 0
333 1 42.4137 5.80009 0 2.82126e-13 -7.31915e-14 0
334 1 43.5298 5.80007 0 -4.67606e-13 2.11775e-14 0
335 1 44.6458 5.80005 0 2.79545e-13 1.17961e-14 0
336 1 45.7619 5.80005 0 2.2605e-13 -6.99441e-15 0
337 1 46.878 5.80008 0 4.28281e-13 -2.15938e-14 0
338 1 47.994 5.80015 0 -1.1603e-13 -7.39409e-14 0
339 1 49.11 5.80029 0 -3.03579e-13 9.6867e-15 0
340 1 50.226 5.80051 0 5.1981e-13 9.63118e-15 0
341 1 51.342 5.80085 0 -3.49164e-13 -2.78944e-14 0
342 1 52.4581 5.80125 0 5.54596e-13 -5.88696e-14 0
343 1 53.575 5.80167 0 6.44218e-14 -7.25808e-14 0
344 1 0.561364 6.76717 0 4.76279e-15 -5.63993e-14 0
345 1 1.6782 6.76714 0 -6.90379e-15 -2.79499e-14 0
346 1 2.7944 6.76709 0 1.89951e-15 -1.6237e-14 0
347 1 3.91045 6.76704 0 -1.2983e-15 2.52576e-14 0
348 1 5.02646 6.767 0 2.20471e-14 -7.28584e-14 0
349 1 6.14247 6.76698 0 5.20339e-14 4.1106e-14 0
350 1 7.25848 6.76696 0 -1.86938e-14 -5.60385e-14 0
351 1 8.37449 6.76695 0 -2.90837e-14 -5.28189e-14 0
352 1 9.49051 6.76695 0 9.28422e-14 -2.85882e-14 0
353 1 10.6065 6.76695 0 -1.341e-13 -7.43294e-14 0
354 1 11.7225 6.76695 0 -3.76215e-14 2.02893e-14 0
355 1 12.8386 6.76696 0 7.44392e-14 -4.82669e-14 0
356 1 13.9546 6.76696 0 1.13583e-13 -4.44367e-14 0
357 1 15.0706 6.76697 0 4.29064e-14 2.52576e-15 0
358 1 16.1866 6.76697 0 2.40121e-13 -1.34337e-14 0
359 1 17.3026 6.76697 0 -2.04728e-13 -3.76643e-14 0
360 1 18.4187 6.76697 0 9.14175e-14 -6.45872e-14 0
361 1 19.5347 6.76697 0 -4.73696e-14 -5.77316e-14 0
362 1 20.6507 6.76697 0 9.07976e-14 1.88738e-15 0
363 1 21.7667 6.76696 0 7.84501e-14 -3.05866e-14 0
364 1 22.8827 6.76695 0 2.82532e-13 3.37508e-14 0
365 1 23.9988 6.76694 0 1.77047e-13 4.36318e-14 0
366 1 25.1148 6.76693 0 1.98964e-14 6.96665e-15 0
367 1 26.2308 6.76691 0 -1.50613e-13 3.75533e-14 0
368 1 27.3468 6.7669 0 -2.02497e-14 7.63833e-14 0
369 1 28.4629 6.76687 0 2.51272e-13 -7.10265e-14 0
370 1 29.5789 6.76685 0 2.75848e-13 -8.88178e-16 0
371 1 30.6949 6.76682 0 -4.10479e-14 -1.70142e-14 0
372 1 31.811 6.76679 0 -2.58172e-15 6.28109e-14 0
373 1 32.927 6.76675 0 5.15427e-13 4.59077e-14 0
374 1 34.0431 6.76672 0 4.87759e-13 1.52656e-15 0
375 1 35.1591 6.76668 0 -3.23288e-13 -6.39211e-14 0
376 1 36.2752 6.76663 0 6.1528e-14 -6.07847e-15 0
377 1 37.3912 6.76659 0 5.28854e-13 -3.96627e-14 0
378 1 38.5073 6.76655 0 9.08429e-14 -5.16254e-15 0
379 1 39.6233 6.76651 0 -2.39042e-13 -6.95832e-14 0
380 1 40.7394 6.76647 0 5.66311e-13 -6.90559e-14 0
381 1 41.8555 6.76643 0 5.11482e-13 -5.14033e-14 0
382 1 42.9715 6.7664 0 1.46719e-13 -7.69662e-14 0
383 1 44.0876 6.76638 0 -3.94051e-14 -8.29059e-14 0
384 1 45.2036 6.76639 0 3.64257e-13 -5.05707e-14 0
385 1 46.3197 6.76641 0 -9.54481e-14 -1.14631e-14 0
386 1 47.4357 6.76647 0 3.04646e-13 -1.42109e-14 0
387 1 48.5517 6.76659 0 2.37298e-13 1.03806e-14 0
388 1 49.6677 6.76677 0 3.20123e-13 -1.68754e-14 0
389 1 50.7836 6.76703 0 1.04829e-13 -1.10467e-14 0
390 1 51.8995 6.76735 0 -8.76581e-14 -2.15661e-14 0
391 1 53.0151 6.7677 0 -1.13835e-13 1.59872e-14 0
392 1 54.136 6.76804 0 4.25163e-13 -4.26048e-14 0
393 1 0 7.7335 0 0 -5.50254e-14 0
394 1 1.12093 7.73349 0 4.71845e-15 -5.30687e-14 0
395 1 2.2366 7.73346 0 9.96425e-15 -5.20833e-14 0
396 1 3.35252 7.73342 0 2.41474e-14 -1.47105e-14 0
397 1 4.4685 7.73339 0 -7.85205e-14 2.36894e-14 0
398 1 5.5845 7.73336 0 5.81479e-14 -1.11994e-14 0
399 1 6.70051 7.73334 0 -2.33147e-15 4.11893e-14 0
400 1 7.81652 7.73332 0 9.52016e-15 5.45813e-14 0
401 1 8.93253 7.73332 0 -9.07607e-14 -2.91017e-14 0
402 1 10.0485 7.73332 0 1.37501e-13 -4.75453e-14 0
403 1 11.1646 7.73332 0 1.69309e-14 -4.01068e-15 0
404 1 12.2806 7.73332 0 -9.50351e-14 -1.08247e-15 0
405 1 13.3966 7.73332 0 -1.00309e-13 -1.07275e-14 0
406 1 14.5126 7.73333 0 1.13964e-13 -6.5864e-14 0
407 1 15.6286 7.73333 0 -2.07612e-14 6.245e-16 0
408 1 16.7447 7.73334 0 1.29258e-13 -4.26187e-14 0
409 1 17.8607 7.73334 0 2.55906e-13 -6.94722e-14 0
410 1 18.9767 7.73334 0 2.71727e-13 -2.57711e-14 0
411 1 20.0927 7.73334 0 6.90004e-14 2.05808e-14 0
412 1 21.2087 7.73333 0 1.3195e-13 -6.68909e-14 0
413 1 22.3247 7.73332 0 -1.77053e-13 6.55448e-14 0
414 1 23.4408 7.73331 0 1.42969e-13 -6.58085e-14 0
415 1 24.5568 7.7333 0 2.52076e-13 -7.32747e-15 0
416 1 25.6728 7.73329 0 1.32228e-13 -4.24938e-14 0
417 1 26.7888 7.73327 0 2.24487e-13 -3.80251e-15 0
418 1 27.9048 7.73324 0 4.1106e-14 4.92106e-14 0
419 1 29.0208 7.73322 0 2.65066e-13 -9.35363e-15 0
420 1 30.1369 7.73319 0 2.70062e-13 -1.12549e-14 0
421 1 31.2529 7.73315 0 -8.84848e-14 -8.06022e-14 0
422 1 32.3689 7.73312 0 3.66346e-13 -3.22103e-14 0
423 1 33.485 7.73308 0 3.98265e-13 -8.94423e-14 0
424 1 34.601 7.73304 0 2.55601e-13 -8.36831e-15 0
425 1 35.717 7.73299 0 4.41508e-13 3.43614e-14 0
426 1 36.8331 7.73295 0 1.49381e-13 -5.97578e-14 0
427 1 37.9491 7.7329 0 2.03004e-13 -1.45717e-15 0
428 1 39.0652 7.73286 0 -6.25583e-13 1.98036e-14 0
429 1 40.1812 7.73282 0 4.2355e-13 -3.35842e-15 0
430 1 41.2973 7.73278 0 6.03212e-13 -5.90916e-14 0
431 1 42.4133 7.73275 0 -3.64153e-13 -6.12704e-14 0
432 1 43.5294 7.73273 0 3.32484e-13 -2.58821e-14 0
433 1 44.6454 7.73272 0 9.44245e-14 -1.11994e-14 0
434 1 45.7614 7.73274 0 -2.73115e-13 4.52416e-15 0
435 1 46.8774 7.7328 0 3.09308e-13 6.50868e-15 0
436 1 47.9934 7.73289 0 -4.0043e-13 7.84095e-14 0
437 1 49.1094 7.73303 0 5.04818e-13 -4.88498e-15 0
438 1 50.2254 7.73324 0 -1.78635e-13 2.21351e-14 0
439 1 51.3414 7.73349 0 -3.50275e-14 -4.16334e-16 0
440 1 52.4576 7.73379 0 -1.40554e-13 -4.26048e-14 0
441 1 53.5744 7.73409 0 2.45478e-13 8.50986e-14 0
442 1 0.561368 8.69983 0 -8.12306e-15 -1.46522e-13 0
443 1 1.67821 8.69981 0 5.88418e-15 -1.14353e-14 0
444 1 2.79442 8.69979 0 -1.69864e-14 -1.61537e-13 0
445 1 3.91048 8.69976 0 4.02178e-14 -1.44273e-13 0
446 1 5.02651 8.69973 0 -2.12885e-14 -1.0808e-13 0
447 1 6.14252 8.69971 0 3.76088e-14 -1.18697e-13 0
448 1 7.25854 8.69969 0 -6.99441e-15 -1.39527e-13 0
449 1 8.37455 8.69969 0 1.23318e-13 -1.31645e-13 0
450 1 9.49056 8.69968 0 -1.38389e-13 -1.42109e-14 0
451 1 10.6066 8.69968 0 8.63198e-14 -8.90815e-14 0
452 1 11.7226 8.69968 0 9.11771e-14 -1.5081e-13 0
453 1 12.8386 8.69969 0 9.4813e-14 -7.64389e-14 0
454 1 13.9546 8.69969 0 1.39833e-13 6.02296e-14 0
455 1 15.0706 8.6997 0 -1.03695e-13 -6.27276e-14 0
456 1 16.1867 8.6997 0 2.40752e-13 -3.44724e-14 0
457 1 17.3027 8.69971 0 1.48964e-13 9.15379e-14 0
458 1 18.4187 8.69971 0 -2.03448e-13 -6.37129e-14 0
459 1 19.5347 8.69971 0 8.13238e-15 3.747e-16 0
460 1 20.6507 8.6997 0 1.67977e-13 -1.58207e-15 0
461 1 21.7667 8.6997 0 1.09635e-13 -1.32602e-13 0
462 1 22.8827 8.69969 0 -5.60663e-14 -2.04003e-15 0
463 1 23.9987 8.69968 0 2.99871e-13 -1.08413e-13 0
464 1 25.1148 8.69966 0 1.19627e-14 -5.19584e-14 0
465 1 26.2308 8.69964 0 2.08444e-13 5.88418e-15 0
466 1 27.3468 8.69962 0 2.27901e-13 8.11018e-14 0
467 1 28.4628 8.69959 0 6.13953e-14 -1.23485e-13 0
468 1 29.5788 8.69956 0 1.82854e-13 -8.24341e-14 0
469 1 30.6948 8.69953 0 -1.94844e-14 -1.57277e-13 0
470 1 31.8109 8.69949 0 -2.08555e-13 -4.94604e-14 0
471 1 32.9269 8.69945 0 3.81917e-14 -1.17642e-13 0
472 1 34.0429 8.69941 0 6.11816e-13 9.20791e-14 0
473 1 35.1589 8.69936 0 1.41054e-13 -6.91669e-14 0
474 1 36.275 8.69931 0 3.8422e-13 -4.27436e-15 0
475 1 37.391 8.69927 0 7.32747e-15 -1.19071e-13 0
476 1 38.507 8.69922 0 3.8608e-14 -1.53599e-13 0
477 1 39.6231 8.69917 0 -4.46587e-13 -1.02252e-13 0
478 1 40.7391 8.69913 0 5.47146e-13 -8.60423e-15 0
479 1 41.8551 8.6991 0 1.48326e-13 -9.14824e-14 0
480 1 42.9712 8.69908 0 2.74503e-14 4.17999e-14 0
481 1 44.0872 8.69907 0 -3.43336e-13 8.5626e-14 0
482 1 45.2032 8.69908 0 -5.20139e-14 2.92821e-14 0
483 1 46.3192 8.69912 0 5.6033e-13 -1.31561e-13 0
484 1 47.4352 8.69919 0 1.66117e-13 -3.10862e-15 0
485 1 48.5512 8.69931 0 5.02764e-13 -1.06359e-13 0
486 1 49.6671 8.69947 0 3.25517e-13 9.88098e-15 0
487 1 50.7831 8.69968 0 -8.73746e-14 5.56777e-14 0
488 1 51.8989 8.69992 0 1.50602e-13 4.70596e-14 0
489 1 53.0146 8.70018 0 2.24071e-13 5.20417e-14 0
490 1 54.1355 8.70044 0 4.68459e-13 -1.08524e-14 0
491 1 0 9.66616 0 0 -5.13756e-14 0
492 1 1.12093 9.66616 0 1.10914e-14 -1.36169e-13 0
493 1 2.23661 9.66614 0 3.25181e-15 -1.05638e-13 0
494 1 3.35254 9.66612 0 -2.9714e-15 3.75533e-14 0
495 1 4.46853 9.6661 0 2.59557e-14 -2.1122e-14 0
496 1 5.58454 9.66608 0 1.32672e-14 -8.67917e-14 0
497 1 6.70055 9.66606 0 4.21229e-14 6.53089e-14 0
498 1 7.81656 9.66605 0 1.03763e-14 -5.76483e-14 0
499 1 8.93258 9.66605 0 -8.42029e-14 -1.18711e-13 0
500 1 10.0486 9.66605 0 1.5663e-13 8.35998e-14 0
501 1 11.1646 9.66605 0 -3.75159e-14 -1.46771e-13 0
502 1 12.2806 9.66605 0 1.6114e-14 -8.90954e-15 0
503 1 13.3966 9.66606 0 -8.78687e-14 -5.01543e-14 0
504 1 14.5126 9.66606 0 1.00227e-14 -1.5335e-13 0
505 1 15.6287 9.66607 0 -5.23994e-14 -8.52374e-14 0
506 1 16.7447 9.66607 0 -1.53147e-13 -1.35392e-13 0
507 1 17.8607 9.66608 0 2.5399e-13 -9.73666e-14 0
508 1 18.9767 9.66608 0 2.27528e-13 7.38298e-14 0
509 1 20.0927 9.66608 0 -1.32088e-13 -1.20653e-13 0
510 1 21.2087 9.66607 0 4.52243e-14 -1.61843e-13 0
511 1 22.3247 9.66606 0 2.94515e-13 -8.63198e-15 0
512 1 23.4407 9.66605 0 2.2066e-13 5.44564e-14 0
513 1 24.5567 9.66604 0 3.92475e-14 -4.71845e-15 0
514 1 25.6728 9.66602 0 2.70694e-13 -8.34333e-14 0
515 1 26.7888 9.666 0 2.1604e-13 -6.30329e-14 0
516 1 27.9048 9.66597 0 7.3736e-14 -9.4369e-16 0
517 1 29.0208 9.66594 0 2.59617e-13 -8.05189e-14 0
518 1 30.1368 9.66591 0 4.58114e-14 -1.09218e-13 0
519 1 31.2528 9.66587 0 -2.26965e-13 -2.66176e-14 0
520 1 32.3688 9.66583 0 1.28158e-13 1.63008e-13 0
521 1 33.4848 9.66578 0 3.0407e-13 1.57097e-14 0
522 1 34.6009 9.66574 0 -5.37641e-13 -1.32616e-13 0
523 1 35.7169 9.66569 0 -1.54649e-13 4.69069e-15 0
524 1 36.8329 9.66564 0 2.05365e-13 5.96745e-15 0
525 1 37.9489 9.66559 0 8.17188e-14 1.27648e-13 0
526 1 39.0649 9.66554 0 -2.81469e-13 -1.50546e-13 0
527 1 40.181 9.6655 0 9.72053e-14 1.20182e-14 0
528 1 41.297 9.66546 0 -1.85522e-13 -3.24185e-14 0
529 1 42.413 9.66543 0 3.15796e-13 -1.07081e-13 0
530 1 43.529 9.66542 0 -2.50554e-13 -1.4555e-13 0
531 1 44.645 9.66542 0 3.04196e-13 -1.31561e-13 0
532 1 45.761 9.66545 0 4.1355e-13 -3.10862e-15 0
533 1 46.877 9.6655 0 -1.98125e-13 -1.22485e-13 0
534 1 47.9929 9.66559 0 -7.47655e-14 -6.01741e-14 0
535 1 49.1089 9.66572 0 1.18261e-13 -2.498e-15 0
536 1 50.2249 9.66589 0 2.41972e-13 1.52933e-14 0
537 1 51.3409 9.66608 0 1.29883e-13 -1.46494e-13 0
538 1 52.4571 9.6663 0 3.09081e-13 6.68632e-14 0
539 1 53.5739 9.66653 0 7.55374e-14 -1.08052e-13 0
540 1 0.561372 10.6325 0 4.80171e-15 6.74738e-14 0
541 1 1.67821 10.6325 0 -1.14075e-14 -6.99996e-14 0
542 1 2.79443 10.6325 0 7.13318e-15 -1.62509e-13 0
543 1 3.9105 10.6325 0 -2.48135e-14 5.94663e-14 0
544 1 5.02654 10.6324 0 -6.38378e-16 -1.14964e-13 0
545 1 6.14256 10.6324 0 -9.4369e-16 -1.6219e-13 0
546 1 7.25858 10.6324 0 -6.44484e-14 -1.59331e-13 0
547 1 8.37459 10.6324 0 7.55507e-14 -1.15852e-13 0
548 1 9.49061 10.6324 0 5.38458e-15 -1.08968e-13 0
549 1 10.6066 10.6324 0 7.11653e-14 -1.29285e-13 0
550 1 11.7226 10.6324 0 6.86395e-14 5.68157e-14 0
551 1 12.8386 10.6324 0 -3.38063e-14 6.16729e-14 0
552 1 13.9547 10.6324 0 1.12327e-13 -1.43274e-13 0
553 1 15.0707 10.6324 0 -5.76761e-14 4.84612e-14 0
554 1 16.1867 10.6324 0 -2.91434e-15 2.77556e-15 0
555 1 17.3027 10.6324 0 -4.96825e-14 -1.44107e-13 0
556 1 18.4187 10.6325 0 2.8566e-13 -6.46982e-14 0
557 1 19.5347 10.6325 0 -2.81247e-13 -1.36308e-13 0
558 1 20.6507 10.6324 0 9.0622e-14 -3.0323e-14 0
559 1 21.7667 10.6324 0 2.38587e-13 1.67755e-13 0
560 1 22.8827 10.6324 0 8.98448e-14 -1.50033e-13 0
561 1 23.9987 10.6324 0 -1.99812e-13 -9.06081e-14 0
562 1 25.1147 10.6324 0 7.9825e-14 -1.23387e-13 0
563 1 26.2307 10.6324 0 1.3517e-14 -1.06803e-13 0
564 1 27.3467 10.6324 0 2.14745e-13 -1.55792e-13 0
565 1 28.4627 10.6323 0 -5.9841e-14 -2.99066e-14 0
566 1 29.5787 10.6323 0 -2.32869e-14 1.54599e-14 0
567 1 30.6948 10.6323 0 1.22735e-13 7.86871e-15 0
568 1 31.8108 10.6322 0 1.01807e-13 -9.67421e-14 0
569 1 32.9268 10.6322 0 1.38778e-14 -1.20126e-13 0
570 1 34.0428 10.6321 0 4.13836e-14 -1.29258e-13 0
571 1 35.1588 10.6321 0 -2.43416e-13 1.50588e-13 0
572 1 36.2748 10.632 0 4.1106e-13 -1.38736e-13 0
573 1 37.3908 10.632 0 -5.43177e-14 -1.17503e-13 0
574 1 38.5068 10.6319 0 5.46008e-13 -4.42979e-14 0
575 1 39.6228 10.6319 0 4.44172e-13 -1.05499e-13 0
576 1 40.7388 10.6318 0 3.28931e-13 8.45157e-15 0
577 1 41.8548 10.6318 0 -4.52666e-13 -5.75928e-15 0
578 1 42.9708 10.6318 0 3.25989e-13 -5.67185e-14 0
579 1 44.0868 10.6318 0 -8.18234e-14 -4.16056e-14 0
580 1 45.2028 10.6318 0 4.49085e-14 -7.36911e-15 0
581 1 46.3188 10.6318 0 3.41949e-13 1.3306e-13 0
582 1 47.4348 10.6319 0 -4.59938e-13 -3.43475e-14 0
583 1 48.5507 10.632 0 -3.89966e-14 -1.03237e-13 0
584 1 49.6667 10.6321 0 4.75592e-13 -2.6229e-15 0
585 1 50.7827 10.6323 0 -3.07004e-13 -7.8576e-14 0
586 1 51.8986 10.6325 0 5.83728e-13 -7.81042e-14 0
587 1 53.0142 10.6327 0 -4.61436e-14 1.92624e-14 0
588 1 54.1351 10.6329 0 1.95648e-13 1.69309e-14 0
589 1 0 11.5988 0 0 -8.22953e-14 0
590 1 1.12094 11.5988 0 -1.35266e-15 -1.4555e-13 0
591 1 2.23661 11.5988 0 1.11441e-14 1.37279e-13 0
592 1 3.35255 11.5988 0 4.05769e-15 -2.60625e-14 0
593 1 4.46855 11.5988 0 4.07981e-14 -7.14151e-14 0
594 1 5.58457 11.5988 0 -5.95154e-14 -1.3517e-14 0
595 1 6.70059 11.5988 0 3.3389e-15 1.55875e-13 0
596 1 7.8166 11.5988 0 5.14872e-14 -2.44527e-14 0
597 1 8.93262 11.5988 0 2.30975e-14 1.75693e-14 0
598 1 10.0486 11.5988 0 3.76821e-15 -1.17933e-13 0
599 1 11.1646 11.5988 0 7.53189e-14 -1.35225e-13 0
600 1 12.2807 11.5988 0 -7.44456e-15 1.39389e-13 0
601 1 13.3967 11.5988 0 -1.18441e-13 -8.38218e-14 0
602 1 14.5127 11.5988 0 1.76354e-14 -1.02474e-13 0
603 1 15.6287 11.5988 0 8.12151e-14 8.64309e-14 0
604 1 16.7447 11.5988 0 1.36954e-13 -7.59393e-14 0
605 1 17.8607 11.5988 0 1.18176e-13 2.98928e-14 0
606 1 18.9767 11.5988 0 -5.96393e-14 -7.69107e-14 0