
# LJ reduced units: epsilon = 1, sigma = 1, mass = 1
units lj

# True 2D simulation. LAMMPS requires z-periodicity for dimension 2.
dimension 2

# Simple atomic particles: id, type, x, y, z
atom_style atomic

# Finite in x and y, periodic in z as required for dimension 2
boundary f f p

# Read initial atom positions
read_data ./lammps_2d_input_output/lattice_2d.data
Reading data file ...
  orthogonal box = (-5 -5 -10) to (59.439409 52.631952 10)
  1 by 1 by 1 MPI processor grid
  reading atoms ...
  2450 atoms
  read_data CPU = 0.010 seconds

# Physical cutoff:
# nearest neighbor distance = a
# second neighbor distance  = sqrt(3)*a
# third neighbor distance   = 2*a
# rc = 1.9*a includes 1st and 2nd neighbors if cutoff_factor=1.9
pair_style lj/cut 2.1326778917878086
pair_coeff 1 1 1.0 1.0 2.1326778917878086

# Neighbor list settings
neighbor 0.3 bin
neigh_modify every 1 delay 0 check yes

# Keep system in the xy-plane
fix keep2d all enforce2d

# ---------------------------------------------------------------
# Boundary condition groups
# ---------------------------------------------------------------
group origin id 1
1 atoms in group origin
group xaxis id 2 3 4 5 6 7 8 9 10 11 12 13 14 15 16 17 18 19 20 21 22 23 24 25 26 27 28 29 30 31 32 33 34 35 36 37 38 39 40 41 42 43 44 45 46 47 48 49
48 atoms in group xaxis
group yaxis id 99 197 295 393 491 589 687 785 883 981 1079 1177 1275 1373 1471 1569 1667 1765 1863 1961 2059 2157 2255 2353
24 atoms in group yaxis

# ---------------------------------------------------------------
# Dirichlet boundary constraints
# origin: fixed in x and y
# x-axis atoms: constrained in y
# y-axis atoms: constrained in x
# ---------------------------------------------------------------

fix fix_origin origin setforce 0.0 0.0 0.0
fix fix_xaxis xaxis setforce NULL 0.0 0.0
fix fix_yaxis yaxis setforce 0.0 NULL 0.0

# Print minimization progress every 100 iterations.
# pe is total potential energy because thermo_modify norm no is used.
thermo 100
thermo_style custom step pe fnorm fmax
thermo_modify norm no

# Start minimization counter at 0
reset_timestep 0

# Write atom trajectory during minimization
dump traj all custom 100 ./lammps_2d_input_output/relax_2d_traj.lammpstrj id type x y z fx fy fz
dump_modify traj sort id

# Energy minimization
min_style cg
minimize 0.0 9.9999999999999998e-13 10000 100000

CITE-CITE-CITE-CITE-CITE-CITE-CITE-CITE-CITE-CITE-CITE-CITE-CITE

Your simulation uses code contributions which should be cited:

- Type Label Framework: https://doi.org/10.1021/acs.jpcb.3c08419

@Article{Gissinger24,
 author = {Jacob R. Gissinger, Ilia Nikiforov, Yaser Afshar, Brendon Waters, Moon-ki Choi, Daniel S. Karls, Alexander Stukowski, Wonpil Im, Hendrik Heinz, Axel Kohlmeyer, and Ellad B. Tadmor},
 title = {Type Label Framework for Bonded Force Fields in LAMMPS},
 journal = {J. Phys. Chem. B},
 year =    2024,
 volume =  128,
 number =  13,
 pages =   {3282–-3297}
}

CITE-CITE-CITE-CITE-CITE-CITE-CITE-CITE-CITE-CITE-CITE-CITE-CITE

Generated 0 of 0 mixed pair_coeff terms from geometric mixing rule
Neighbor list info ...
  update: every = 1 steps, delay = 0 steps, check = yes
  max neighbors/atom: 2000, page size: 100000
  master list distance cutoff = 2.4326779
  ghost atom cutoff = 2.4326779
  binsize = 1.2163389, bins = 53 48 17
  1 neighbor lists, perpetual/occasional/extra = 1 0 0
  (1) pair lj/cut, perpetual
      attributes: half, newton on
      pair build: half/bin/atomonly/newton
      stencil: half/bin/2d
      bin: standard
Per MPI rank memory allocation (min/avg/max) = 4.186 | 4.186 | 4.186 Mbytes
   Step         PotEng         Fnorm           Fmax     
         0  -7662.4252      5.6232194      0.44027575   
       100  -7671.1564      0.74255176     0.045687164  
       200  -7671.2209      0.1098227      0.006112251  
       300  -7671.2221      0.0065482862   0.00044657192
       400  -7671.2221      0.00055921324  2.8345922e-05
       500  -7671.2221      4.7505618e-05  2.5394123e-06
       600  -7671.2221      5.491169e-06   3.601755e-07 
       700  -7671.2221      2.4557702e-07  1.7400765e-08
       800  -7671.2221      2.062796e-08   1.2151112e-09
       900  -7671.2221      1.4114803e-09  7.3624717e-11
      1000  -7671.2221      7.2698123e-11  4.5516981e-12
      1100  -7671.2221      3.6363542e-11  2.4013985e-12
      1200  -7671.2221      3.3594914e-11  2.5559577e-12
      1300  -7671.2221      3.0618212e-11  2.1045943e-12
      1400  -7671.2221      2.7473239e-11  2.0259627e-12
      1500  -7671.2221      1.7383597e-11  9.7008512e-13
      1600  -7671.2221      1.7407791e-11  1.0897672e-12
      1700  -7671.2221      1.7059947e-11  1.1225187e-12
      1800  -7671.2221      1.6970453e-11  1.2806561e-12
      1900  -7671.2221      1.655404e-11   7.0224534e-13
      2000  -7671.2221      1.684652e-11   1.108863e-12 
      2100  -7671.2221      1.6542818e-11  7.0878026e-13
      2200  -7671.2221      1.6583575e-11  9.3600128e-13
      2300  -7671.2221      1.6745292e-11  1.0073054e-12
      2400  -7671.2221      1.6819028e-11  1.5025342e-12
      2500  -7671.2221      1.661802e-11   9.4339814e-13
      2600  -7671.2221      1.6404246e-11  7.4429929e-13
      2700  -7671.2221      1.6406511e-11  7.4429929e-13
      2800  -7671.2221      1.6405406e-11  7.4429929e-13
      2900  -7671.2221      1.6406662e-11  7.4429929e-13
      3000  -7671.2221      1.6406511e-11  7.4429929e-13
      3100  -7671.2221      1.6402991e-11  7.4429929e-13
      3200  -7671.2221      1.6406662e-11  7.4429929e-13
      3300  -7671.2221      1.6408926e-11  7.4429929e-13
      3400  -7671.2221      1.6402991e-11  7.4429929e-13
      3500  -7671.2221      1.6404246e-11  7.4429929e-13
      3600  -7671.2221      1.6408926e-11  7.4429929e-13
      3700  -7671.2221      1.6405406e-11  7.4429929e-13
      3800  -7671.2221      1.6404246e-11  7.4429929e-13
      3900  -7671.2221      1.6406511e-11  7.4429929e-13
      4000  -7671.2221      1.6405406e-11  7.4429929e-13
      4100  -7671.2221      1.6406662e-11  7.4429929e-13
      4200  -7671.2221      1.6406511e-11  7.4429929e-13
      4300  -7671.2221      1.6402991e-11  7.4429929e-13
      4400  -7671.2221      1.6406662e-11  7.4429929e-13
      4500  -7671.2221      1.6408926e-11  7.4429929e-13
      4600  -7671.2221      1.6402991e-11  7.4429929e-13
      4700  -7671.2221      1.6404246e-11  7.4429929e-13
      4800  -7671.2221      1.6408926e-11  7.4429929e-13
      4900  -7671.2221      1.6405406e-11  7.4429929e-13
      5000  -7671.2221      1.6404246e-11  7.4429929e-13
      5100  -7671.2221      1.6406511e-11  7.4429929e-13
      5200  -7671.2221      1.6405406e-11  7.4429929e-13
      5300  -7671.2221      1.6406662e-11  7.4429929e-13
      5400  -7671.2221      1.6406511e-11  7.4429929e-13
      5500  -7671.2221      1.6402991e-11  7.4429929e-13
      5600  -7671.2221      1.6406662e-11  7.4429929e-13
      5700  -7671.2221      1.6408926e-11  7.4429929e-13
      5800  -7671.2221      1.6402991e-11  7.4429929e-13
      5900  -7671.2221      1.6404246e-11  7.4429929e-13
      6000  -7671.2221      1.6408926e-11  7.4429929e-13
      6100  -7671.2221      1.6405406e-11  7.4429929e-13
      6200  -7671.2221      1.6404246e-11  7.4429929e-13
      6300  -7671.2221      1.6406511e-11  7.4429929e-13
      6400  -7671.2221      1.6405406e-11  7.4429929e-13
      6500  -7671.2221      1.6406662e-11  7.4429929e-13
      6600  -7671.2221      1.6406511e-11  7.4429929e-13
      6700  -7671.2221      1.6402991e-11  7.4429929e-13
      6800  -7671.2221      1.6406662e-11  7.4429929e-13
      6900  -7671.2221      1.6408926e-11  7.4429929e-13
      7000  -7671.2221      1.6402991e-11  7.4429929e-13
      7100  -7671.2221      1.6404246e-11  7.4429929e-13
      7200  -7671.2221      1.6408926e-11  7.4429929e-13
      7300  -7671.2221      1.6405406e-11  7.4429929e-13
      7400  -7671.2221      1.6400448e-11  7.4429929e-13
      7500  -7671.2221      1.6400445e-11  7.4429929e-13
      7600  -7671.2221      1.6401878e-11  7.4429929e-13
      7700  -7671.2221      1.6400666e-11  7.4429929e-13
      7800  -7671.2221      1.6400228e-11  7.4429929e-13
      7900  -7671.2221      1.6400445e-11  7.4429929e-13
      8000  -7671.2221      1.6402099e-11  7.4429929e-13
      8100  -7671.2221      1.6400445e-11  7.4429929e-13
      8200  -7671.2221      1.6400228e-11  7.4429929e-13
      8300  -7671.2221      1.6400666e-11  7.4429929e-13
      8400  -7671.2221      1.6401878e-11  7.4429929e-13
      8500  -7671.2221      1.6400445e-11  7.4429929e-13
      8600  -7671.2221      1.6400448e-11  7.4429929e-13
      8700  -7671.2221      1.6400445e-11  7.4429929e-13
      8800  -7671.2221      1.6401878e-11  7.4429929e-13
      8900  -7671.2221      1.6400666e-11  7.4429929e-13
      9000  -7671.2221      1.6400228e-11  7.4429929e-13
      9100  -7671.2221      1.6400445e-11  7.4429929e-13
      9200  -7671.2221      1.6402099e-11  7.4429929e-13
      9300  -7671.2221      1.6400445e-11  7.4429929e-13
      9400  -7671.2221      1.6400228e-11  7.4429929e-13
      9500  -7671.2221      1.6400666e-11  7.4429929e-13
      9600  -7671.2221      1.6401878e-11  7.4429929e-13
      9700  -7671.2221      1.6400445e-11  7.4429929e-13
      9800  -7671.2221      1.6400448e-11  7.4429929e-13
      9900  -7671.2221      1.6400445e-11  7.4429929e-13
     10000  -7671.2221      1.6401878e-11  7.4429929e-13
Loop time of 10.5333 on 1 procs for 10000 steps with 2450 atoms

93.1% CPU use with 1 MPI tasks x 1 OpenMP threads

Minimization stats:
  Stopping criterion = max iterations
  Energy initial, next-to-last, final = 
       -7662.425240054  -7671.22206370991  -7671.22206370991
  Force two-norm initial, final = 5.6232194 1.6401878e-11
  Force max component initial, final = 0.44027575 7.4429929e-13
  Final line search alpha, max atom move = 1 7.4429929e-13
  Iterations, force evaluations = 10000 20000

MPI task timing breakdown:
Section |  min time  |  avg time  |  max time  |%varavg| %total
---------------------------------------------------------------
Pair    | 8.5106     | 8.5106     | 8.5106     |   0.0 | 80.80
Neigh   | 0.0025181  | 0.0025181  | 0.0025181  |   0.0 |  0.02
Comm    | 0.0024813  | 0.0024813  | 0.0024813  |   0.0 |  0.02
Output  | 0.77821    | 0.77821    | 0.77821    |   0.0 |  7.39
Modify  | 0.43337    | 0.43337    | 0.43337    |   0.0 |  4.11
Other   |            | 0.8062     |            |       |  7.65

Nlocal:           2450 ave        2450 max        2450 min
Histogram: 1 0 0 0 0 0 0 0 0 0
Nghost:              0 ave           0 max           0 min
Histogram: 1 0 0 0 0 0 0 0 0 0
Neighs:          21118 ave       21118 max       21118 min
Histogram: 1 0 0 0 0 0 0 0 0 0

Total # of neighbors = 21118
Ave neighs/atom = 8.6195918
Neighbor list builds = 7
Dangerous builds = 0

# Stop trajectory dump
undump traj
Total wall time: 0:00:10
