LAMMPS data file via write_data, version 29 Aug 2024, timestep = 15000, units = lj

2450 atoms
2 atom types

-5 59.43940934300459 xlo xhi
-5 52.63195178237181 ylo yhi
-10 10 zlo zhi

Masses

1 1
2 1

Pair Coeffs # lj/cut

1 1 1
2 0.1 1

Atoms # atomic

1 1 0 0 0 0 0 0
2 1 1.1216418458888033 -0.011154073680780235 0 0 0 0
50 1 0.5668636688433453 0.9611005024042457 0 0 0 0
3 1 2.240339003838425 -0.012556571332344854 0 0 0 0
51 1 1.6832996568285064 0.9565423207210498 0 0 0 0
4 1 3.3587693068502014 -0.013555572238939507 0 0 0 0
52 1 2.80082075599229 0.9551881332696966 0 0 0 0
5 1 4.4770793311166335 -0.014205333016496381 0 0 0 0
53 1 3.918672257842567 0.9543569711454046 0 0 0 0
6 1 5.595335874754786 -0.014646231430224166 0 0 0 0
54 1 5.036666355264367 0.9538080416029494 0 0 0 0
7 1 6.713574190771573 -0.014943863849046748 0 0 0 0
55 1 6.154731326432339 0.953434929154454 0 0 0 0
56 1 7.272840021558532 0.9531878918138398 0 0 0 0
8 1 7.831814389463004 -0.015130539050513129 0 0 0 0
57 1 8.390982853559127 0.9530421588677741 0 0 0 0
9 1 8.950069274023905 -0.015222796488197446 0 0 0 0
58 1 9.509157429362324 0.9529853509571478 0 0 0 0
10 1 10.068348111653004 -0.015228609090060118 0 0 0 0
59 1 10.627364487784059 0.9530121205179908 0 0 0 0
11 1 11.186658518829294 -0.015150596460301272 0 0 0 0
12 1 12.30500747925807 -0.014987530544741653 0 0 0 0
60 1 11.74560627174777 0.9531217161786965 0 0 0 0
13 1 13.423401971898711 -0.01473500262103838 0 0 0 0
61 1 12.863885865282437 0.9533168627099299 0 0 0 0
14 1 14.541849445257482 -0.014385596319277187 0 0 0 0
62 1 13.982206925660908 0.9536033232157195 0 0 0 0
15 1 15.660358272272942 -0.013928687072300857 0 0 0 0
63 1 15.100573579730003 0.9539898973224546 0 0 0 0
16 1 16.778938286372057 -0.013349862643695103 0 0 0 0
64 1 16.218990377602225 0.9544887908875095 0 0 0 0
17 1 17.897601506488876 -0.012629847472735137 0 0 0 0
65 1 17.337462229949953 0.955116413564834 0 0 0 0
66 1 18.455994231873007 0.9558947950978928 0 0 0 0
18 1 19.01636320323338 -0.011742653183274705 0 0 0 0
67 1 19.574591183812235 0.956854035926808 0 0 0 0
19 1 20.135243552412398 -0.010652372248200101 0 0 0 0
68 1 20.693256396166515 0.9580366661134753 0 0 0 0
20 1 21.254270291080996 -0.009307359673897323 0 0 0 0
69 1 21.811988868685606 0.959505820640031 0 0 0 0
21 1 22.373483052557273 -0.007628926747523988 0 0 0 0
70 1 22.93077691631885 0.9613616230920582 0 0 0 0
22 1 23.49294029826504 -0.0054876181128466536 0 0 0 0
23 1 24.612729280315914 -0.002653720612696989 0 0 0 0
71 1 24.04958446561877 0.9637761555577098 0 0 0 0
24 1 25.732986127479105 0.0011091841522790846 0 0 0 0
72 1 25.16832343501307 0.9670658967542448 0 0 0 0
25 1 26.85557313502832 0.011908845495892885 0 0 0 0
73 1 26.286613910291834 0.973232289930196 0 0 0 0
26 2 27.9801865561329 0.02380685785563081 0 0 0 0
74 2 27.41073050888381 0.9805496069446006 0 0 0 0
27 2 29.115425015138566 0.03805540433676163 0 0 0 0
75 2 28.53625832180442 0.9943259267041001 0 0 0 0
28 2 30.25062770799072 0.04806251282115697 0 0 0 0
76 2 29.674881449112007 1.0063153702524148 0 0 0 0
77 2 30.81135102121614 1.0157337685846402 0 0 0 0
29 2 31.385488812287445 0.05648544905475331 0 0 0 0
78 2 31.946931629526553 1.0236871856297014 0 0 0 0
30 2 32.52007103021167 0.06376745665901376 0 0 0 0
79 2 33.082057133859486 1.0305696842242476 0 0 0 0
31 2 33.65447158464734 0.07014772389435678 0 0 0 0
80 2 34.216925031113604 1.0366034063323566 0 0 0 0
32 2 34.788776008290455 0.07578929502762488 0 0 0 0
81 2 35.35164933974429 1.0419410672628164 0 0 0 0
33 2 35.92305209831499 0.08081586443523278 0 0 0 0
34 2 37.057352613686774 0.08532695998175846 0 0 0 0
82 2 36.48630667974695 1.0466992844471983 0 0 0 0
35 2 38.19171895336195 0.0894060472479839 0 0 0 0
83 2 37.62095297159524 1.0509726991008104 0 0 0 0
36 2 39.32618420539858 0.09312552044113644 0 0 0 0
84 2 38.75563094517364 1.0548414066512415 0 0 0 0
37 2 40.46077545778141 0.09655007326164884 0 0 0 0
85 2 39.8903742195621 1.0583755045665155 0 0 0 0
38 2 41.59551556652976 0.09973916677829442 0 0 0 0
86 2 41.02520983484519 1.0616381897097624 0 0 0 0
39 2 42.730424604979355 0.10274901179658563 0 0 0 0
87 2 42.16015996649832 1.0646880748332617 0 0 0 0
88 2 43.29524315896012 1.067581117756139 0 0 0 0
40 2 43.865521209599336 0.10563436795128116 0 0 0 0
89 2 44.430475246574325 1.0703724711048324 0 0 0 0
41 2 45.000824060046014 0.10845045485001771 0 0 0 0
90 2 45.565870018079515 1.0731185985149787 0 0 0 0
42 2 46.136353822067605 0.11125537908343852 0 0 0 0
91 2 46.70143952572417 1.075880204092873 0 0 0 0
43 2 47.27213610232719 0.1141137973546296 0 0 0 0
44 2 48.40820644987886 0.11710334901617064 0 0 0 0
92 2 47.83719357370801 1.0787270675408855 0 0 0 0
45 2 49.54461949923815 0.12032759560154672 0 0 0 0
93 2 48.97313687783307 1.0817473217124849 0 0 0 0
46 2 50.68146665550013 0.12394590714515398 0 0 0 0
94 2 50.109259241388564 1.0850677933765205 0 0 0 0
47 2 51.81891136154012 0.12825470404490308 0 0 0 0
95 2 51.24550444189439 1.0889047168119483 0 0 0 0
48 2 52.95725652239758 0.13396039456522071 0 0 0 0
96 2 52.381675191598106 1.0937083312189189 0 0 0 0
49 2 54.097077102447614 0.1439951615043119 0 0 0 0
97 2 53.51716027556299 1.100700631885479 0 0 0 0
98 2 54.659589203148826 1.11205494754631 0 0 0 0
99 1 0 1.9244757141366489 0 0 0 0
100 1 1.1253987585013454 1.9240602846734594 0 0 0 0
101 1 2.242709728979785 1.921795659231564 0 0 0 0
102 1 3.360301721105639 1.9206703557314824 0 0 0 0
103 1 4.478073210827079 1.9199515884202536 0 0 0 0
104 1 5.595962178059169 1.9194691754987823 0 0 0 0
105 1 6.713928519826314 1.919143726405318 0 0 0 0
106 1 7.831949474863354 1.9189353907628213 0 0 0 0
107 1 8.950012927201717 1.9188237516802369 0 0 0 0
108 1 10.068112798771923 1.9187988633929316 0 0 0 0
109 1 11.186246354659229 1.918857073362598 0 0 0 0
110 1 12.304412688243588 1.9189990368311667 0 0 0 0
111 1 13.422611845239873 1.9192288213836453 0 0 0 0
112 1 14.540844258147551 1.9195536323036588 0 0 0 0
113 1 15.659110287944747 1.9199839821295523 0 0 0 0
114 1 16.777409718626714 1.9205342925159714 0 0 0 0
115 1 17.8957410359774 1.9212240552628221 0 0 0 0
116 1 19.014100237583943 1.9220798663104128 0 0 0 0
117 1 20.13247872755933 1.9231389812581903 0 0 0 0
118 1 21.250859453234472 1.9244557177299888 0 0 0 0
119 1 22.36920963632096 1.9261134804033457 0 0 0 0
120 1 23.487466740731925 1.9282485113593033 0 0 0 0
121 1 24.605510011970054 1.9311023592889887 0 0 0 0
122 1 25.723068740252085 1.9353776372203078 0 0 0 0
123 1 26.844943127797546 1.940102445721388 0 0 0 0
124 2 27.96653503415299 1.949629783402709 0 0 0 0
125 2 29.101034141847094 1.9614917008095432 0 0 0 0
126 2 30.237522775839686 1.9719236596437495 0 0 0 0
127 2 31.37369349676105 1.9806451619102625 0 0 0 0
128 2 32.50942008992393 1.9881100989347011 0 0 0 0
129 2 33.644808167015974 1.9945986176662722 0 0 0 0
130 2 34.77996692725404 2.0002984019951993 0 0 0 0
131 2 35.91498162067899 2.0053470562261007 0 0 0 0
132 2 37.04991692069727 2.0098527113997684 0 0 0 0
133 2 38.184822510947676 2.0139046779452983 0 0 0 0
134 2 39.31973718311932 2.0175795905874345 0 0 0 0
135 2 40.454691571215236 2.0209453522956906 0 0 0 0
136 2 41.58970995681897 2.0240639272375263 0 0 0 0
137 2 42.724811427065795 2.026993537817503 0 0 0 0
138 2 43.86001050663424 2.0297906386643376 0 0 0 0
139 2 44.99531723260732 2.0325120233439824 0 0 0 0
140 2 46.130736435747465 2.0352175582032417 0 0 0 0
141 2 47.266265630984215 2.037974438144585 0 0 0 0
142 2 48.40189024961411 2.040864829532679 0 0 0 0
143 2 49.53757389790546 2.0440010663945762 0 0 0 0
144 2 50.673241066545906 2.047557878495643 0 0 0 0
145 2 51.808759259067116 2.0518417427309044 0 0 0 0
146 2 52.94399773984605 2.0574259626528413 0 0 0 0
147 2 54.07977668575157 2.0647038324057405 0 0 0 0
148 1 0.5652875875509905 2.888863041811843 0 0 0 0
149 1 1.6839111193574412 2.888290177391275 0 0 0 0
150 1 2.8016656081714597 2.887014056180793 0 0 0 0
151 1 3.9193943997348017 2.8861576105615425 0 0 0 0
152 1 5.03718218595249 2.885563334832988 0 0 0 0
153 1 6.155036632626603 2.8851512293428954 0 0 0 0
154 1 7.272948027764445 2.8848736993038666 0 0 0 0
155 1 8.390905791075884 2.884703501788541 0 0 0 0
156 1 9.508901916656603 2.8846258466973285 0 0 0 0
157 1 10.62693093031198 2.8846337577974337 0 0 0 0
158 1 11.744989132767197 2.8847255263154956 0 0 0 0
159 1 12.863073841611268 2.884903401623589 0 0 0 0
160 1 13.981182742945862 2.8851730325843947 0 0 0 0
161 1 15.099313301012355 2.885543425418477 0 0 0 0
162 1 16.21746213238996 2.886027348190011 0 0 0 0
163 1 17.335624233692577 2.886642240293841 0 0 0 0
164 1 18.453791935085846 2.887411824744485 0 0 0 0
165 1 19.571953455311586 2.888368820361436 0 0 0 0
166 1 20.690091056614744 2.8895594688921555 0 0 0 0
167 1 21.80817939161246 2.8910510840099803 0 0 0 0
168 1 22.926186881260037 2.892944463496286 0 0 0 0
169 1 24.044090837884642 2.895393944640612 0 0 0 0
170 1 25.161942824544944 2.8986633557985746 0 0 0 0
171 1 26.280426392584985 2.9023886037417306 0 0 0 0
172 2 27.403210392349223 2.907135477126621 0 0 0 0
173 2 28.526756247711536 2.9177769606202313 0 0 0 0
174 2 29.664121933843337 2.928153796958621 0 0 0 0
175 2 30.800723234438884 2.9374142671750416 0 0 0 0
176 2 31.936854366844585 2.9454148852633186 0 0 0 0
177 2 33.07263575779935 2.9523635469716445 0 0 0 0
178 2 34.20815572133635 2.958446817432676 0 0 0 0
179 2 35.34348804112876 2.963812210436914 0 0 0 0
180 2 36.47869358093571 2.968577567093252 0 0 0 0
181 2 37.61382180876493 2.9728400609776444 0 0 0 0
182 2 38.74891263264752 2.9766824542942656 0 0 0 0
183 2 39.88399804791022 2.980177377489299 0 0 0 0
184 2 41.019103403614906 2.9833904080714007 0 0 0 0
185 2 42.15424824802661 2.986382471266157 0 0 0 0
186 2 43.28944672691152 2.98921193624858 0 0 0 0
187 2 44.424707450644874 2.99193674791623 0 0 0 0
188 2 45.56003263324798 2.9946170166768544 0 0 0 0
189 2 46.69541613261557 2.997318732357679 0 0 0 0
190 2 47.830839810300944 3.000119775272238 0 0 0 0
191 2 48.96626759742676 3.003120283612782 0 0 0 0
192 2 50.10163774786803 3.0064603920866757 0 0 0 0
193 2 51.236859211332025 3.010345890554725 0 0 0 0
194 2 52.37183664209742 3.015053113183354 0 0 0 0
195 2 53.50661332819541 3.020601309135258 0 0 0 0
196 2 54.64976803365442 3.025213948949604 0 0 0 0
197 1 0 3.8537232198317453 0 0 0 0
198 1 1.1246589797288855 3.853679116121765 0 0 0 0
199 1 2.2427205623298874 3.8531390828253955 0 0 0 0
200 1 3.360536387379905 3.8523244803978827 0 0 0 0
201 1 4.478315324382609 3.8516814526289367 0 0 0 0
202 1 5.596113736917913 3.8512042370691897 0 0 0 0
203 1 6.713947945527999 3.8508643422004734 0 0 0 0
204 1 7.831819290365815 3.8506377232122837 0 0 0 0
205 1 8.949724346663395 3.850508480361565 0 0 0 0
206 1 10.067658729987059 3.8504676752124274 0 0 0 0
207 1 11.185618255437053 3.8505117154300836 0 0 0 0
208 1 12.303599065909253 3.8506412033969664 0 0 0 0
209 1 13.42159737642979 3.8508603101620693 0 0 0 0
210 1 14.539609066158285 3.8511765985078883 0 0 0 0
211 1 15.657629178710843 3.851601248663973 0 0 0 0
212 1 16.775651326036623 3.852149706587278 0 0 0 0
213 1 17.89366697851503 3.852842852661884 0 0 0 0
214 1 19.01166466081947 3.85370887587296 0 0 0 0
215 1 20.129629198829573 3.8547861174547586 0 0 0 0
216 1 21.24754146933749 3.856127119400833 0 0 0 0
217 1 22.365379719213248 3.8578035851774324 0 0 0 0
218 1 23.48312438551068 3.8599095401122434 0 0 0 0
219 1 24.60076823850028 3.862550910981523 0 0 0 0
220 1 25.71836248125556 3.86558019347944 0 0 0 0
221 1 26.83995165414359 3.868689492776644 0 0 0 0
222 2 27.96092129396337 3.87590677477866 0 0 0 0
223 2 29.093591498387667 3.8854612426516195 0 0 0 0
224 2 30.228941393002124 3.8945329163515625 0 0 0 0
225 2 31.364832579040296 3.902780711692146 0 0 0 0
226 2 32.500704889108114 3.9100754577545267 0 0 0 0
227 2 33.636423494334224 3.9165006111867644 0 0 0 0
228 2 34.77197990908623 3.922173128539962 0 0 0 0
229 2 35.90740125530093 3.927203618149449 0 0 0 0
230 2 37.04272208767952 3.931689495747169 0 0 0 0
231 2 38.177975479579786 3.935716002670476 0 0 0 0
232 2 39.31319028671449 3.93935868662857 0 0 0 0
233 2 40.44839043220663 3.942685846816828 0 0 0 0
234 2 41.58359478648859 3.945760707588518 0 0 0 0
235 2 42.71881709093702 3.948643413363915 0 0 0 0
236 2 43.8540656580695 3.9513930450216805 0 0 0 0
237 2 44.989342665257105 3.954069941910339 0 0 0 0
238 2 46.12464289979362 3.956738735486638 0 0 0 0
239 2 47.259951969881854 3.9594726591845655 0 0 0 0
240 2 48.39524466188624 3.9623597328651594 0 0 0 0
241 2 49.53048645894056 3.9655105199023852 0 0 0 0
242 2 50.66564863297587 3.9690619441702193 0 0 0 0
243 2 51.800769496355336 3.9731484464263493 0 0 0 0
244 2 52.93615948465666 3.9777067321164012 0 0 0 0
245 2 54.07310465129826 3.981906304840024 0 0 0 0
246 1 0.5648004526816164 4.81888541437366 0 0 0 0
295 1 0 5.784168861579149 0 0 0 0
296 1 1.1242977463156139 5.784193705367074 0 0 0 0
247 1 1.6833282202365014 4.81874121086848 0 0 0 0
297 1 2.2422593341087023 5.78400779150195 0 0 0 0
248 1 2.8014219336418487 4.818300455448677 0 0 0 0
298 1 3.360192007092601 5.7836555389882935 0 0 0 0
249 1 3.919303543398297 4.817737223962714 0 0 0 0
299 1 4.478040433289231 5.783245715743101 0 0 0 0
250 1 5.037116165146521 4.817253967065126 0 0 0 0
300 1 5.595843359640771 5.782881689015554 0 0 0 0
251 1 6.154918230008242 4.816879287769785 0 0 0 0
252 1 7.272732765105817 4.816609527532232 0 0 0 0
301 1 6.713630370998536 5.7825943224190155 0 0 0 0
253 1 8.39056727398217 4.816435646287751 0 0 0 0
302 1 7.831417810983568 5.782390406142891 0 0 0 0
254 1 9.508422612107028 4.816350451442096 0 0 0 0
303 1 8.949213005518075 5.782269621411055 0 0 0 0
255 1 10.626296851701799 4.816350198172717 0 0 0 0
304 1 10.067018046816218 5.782230886471179 0 0 0 0
256 1 11.744186857689519 4.816434652571992 0 0 0 0
305 1 11.184832106182949 5.78227464965566 0 0 0 0
306 1 12.302652648677473 5.782403691049088 0 0 0 0
257 1 12.862088815692719 4.816606885904652 0 0 0 0
307 1 13.42047598640872 5.7826234464077215 0 0 0 0
258 1 13.979998274212196 4.816873186240032 0 0 0 0
308 1 14.538297470147727 5.782942256891065 0 0 0 0
259 1 15.097909954100876 4.817243206217399 0 0 0 0
309 1 15.656111510712995 5.783371708546712 0 0 0 0
260 1 16.2158174463904 4.817730399521094 0 0 0 0
310 1 16.773911573792894 5.7839271265725785 0 0 0 0
261 1 17.333712884115346 4.818352795680198 0 0 0 0
262 1 18.45158671669242 4.8191341661928595 0 0 0 0
311 1 17.891690304277414 5.784628226963596 0 0 0 0
263 1 19.569427870427194 4.820105590440249 0 0 0 0
312 1 19.009440013385277 5.785499829639411 0 0 0 0
264 1 20.687224959486898 4.82130721361913 0 0 0 0
313 1 20.127153912020365 5.786572297745068 0 0 0 0
265 1 21.804970113874106 4.822789248406571 0 0 0 0
314 1 21.244828664241652 5.787880758937634 0 0 0 0
266 1 22.92266922163681 4.824608931333005 0 0 0 0
315 1 22.362468795340757 5.789460621315326 0 0 0 0
267 1 24.040368445877974 4.826812193602262 0 0 0 0
316 1 23.48009189687622 5.791332847256088 0 0 0 0
317 1 24.59772476099516 5.7934582611431376 0 0 0 0
268 1 25.15822920745644 4.829329410853707 0 0 0 0
318 1 25.715310015998796 5.795721708368042 0 0 0 0
269 1 26.27668488495981 4.8319671640911075 0 0 0 0
319 1 26.836775189696933 5.797967250366489 0 0 0 0
270 2 27.399056543413625 4.8353544003794315 0 0 0 0
320 2 27.9574503242103 5.80369134527098 0 0 0 0
271 2 28.52168216224863 4.843934553314932 0 0 0 0
321 2 29.089120244459295 5.811527211388805 0 0 0 0
272 2 29.657808398684498 4.852499123636838 0 0 0 0
273 2 30.79353013943284 4.860577562155374 0 0 0 0
322 2 30.223487428124354 5.819129855178709 0 0 0 0
274 2 31.929272600478754 4.867975140206615 0 0 0 0
323 2 31.35863724837612 5.826334711992321 0 0 0 0
275 2 33.0649914209712 4.874613927675282 0 0 0 0
324 2 32.494086019798914 5.832986252435631 0 0 0 0
276 2 34.200632264815255 4.880529418375092 0 0 0 0
325 2 33.629628099892955 5.839021143585354 0 0 0 0
277 2 35.336177209768564 4.885795756807241 0 0 0 0
326 2 34.76516958387959 5.84445104407792 0 0 0 0
278 2 36.47163191366023 4.89049501731418 0 0 0 0
327 2 35.9006710103941 5.84932346738779 0 0 0 0
328 2 37.0361206910521 5.853699679350498 0 0 0 0
279 2 37.60701254660104 4.894706580344225 0 0 0 0
329 2 38.17152055501649 5.8576443817334365 0 0 0 0
280 2 38.74233830540071 4.898504327280501 0 0 0 0
330 2 39.3068784008338 5.861221511532198 0 0 0 0
281 2 39.87762763881859 4.90195667932702 0 0 0 0
331 2 40.44220361130389 5.864492959690903 0 0 0 0
282 2 41.01289637907346 4.905127632974926 0 0 0 0
332 2 41.57750473051159 5.867518667675043 0 0 0 0
283 2 42.14815673493544 4.90807816118193 0 0 0 0
284 2 43.28341659700452 4.910867825737122 0 0 0 0
333 2 42.71278802878606 5.870357414180526 0 0 0 0
285 2 44.418678880296596 4.913556649989944 0 0 0 0
334 2 43.848056612085024 5.873068007931076 0 0 0 0
286 2 45.55394082686036 4.916207394324971 0 0 0 0
335 2 44.9833099395334 5.875710761949857 0 0 0 0
287 2 46.68919347211481 4.918888363846873 0 0 0 0
336 2 46.11854394209836 5.8783490908791745 0 0 0 0
288 2 47.82442209025962 4.9216765705225605 0 0 0 0
337 2 47.25375245742913 5.881050732862391 0 0 0 0
338 2 48.388931643213475 5.883887069304782 0 0 0 0
289 2 48.95960979827967 4.9246598087808415 0 0 0 0
339 2 49.524090659557906 5.886926416281869 0 0 0 0
290 2 50.0947490349965 4.927931994439514 0 0 0 0
340 2 50.65927416627728 5.890211531419762 0 0 0 0
291 2 51.22986766572065 4.931563456910401 0 0 0 0
341 2 51.79460353862884 5.893704224663601 0 0 0 0
292 2 52.36506072916194 4.935494982757431 0 0 0 0
342 2 52.93033823883063 5.897217434833232 0 0 0 0
293 2 53.50035840906688 4.9393434386222665 0 0 0 0
294 2 54.64292341353226 4.942955278868558 0 0 0 0
343 2 54.0672540218905 5.900596564326877 0 0 0 0
344 1 0.5645183411228107 6.749623523259454 0 0 0 0
345 1 1.6829260015725167 6.749598164265098 0 0 0 0
346 1 2.8009717972017523 6.749419554764626 0 0 0 0
347 1 3.9188881431795584 6.749142311194598 0 0 0 0
348 1 5.036719350593713 6.748837603436183 0 0 0 0
349 1 6.154504100503045 6.748565584680136 0 0 0 0
350 1 7.272266786434528 6.748352809465641 0 0 0 0
351 1 8.390021155634363 6.748209995149036 0 0 0 0
352 1 9.507773967146631 6.748141693401784 0 0 0 0
353 1 10.625527606170813 6.748150929631747 0 0 0 0
354 1 11.743281729865831 6.748241346553086 0 0 0 0
355 1 12.861034229449867 6.748418217899157 0 0 0 0
356 1 13.978781769400559 6.7486889963475845 0 0 0 0
357 1 15.096520104951336 6.749063702729998 0 0 0 0
358 1 16.21424434118976 6.749555282516039 0 0 0 0
359 1 17.33194929693157 6.750179942413715 0 0 0 0
360 1 18.449630182500226 6.750957360176921 0 0 0 0
361 1 19.56728390562687 6.751910455321774 0 0 0 0
362 1 20.68491151036722 6.753063990884814 0 0 0 0
363 1 21.802522595754525 6.754440415679155 0 0 0 0
364 1 22.92014326920387 6.7560496787893864 0 0 0 0
365 1 24.037831047709155 6.757867129307816 0 0 0 0
366 1 25.15570133976933 6.759820971274057 0 0 0 0
367 1 26.27413086436699 6.761794330633256 0 0 0 0
368 2 27.39628434887769 6.764378081050705 0 0 0 0
369 2 28.51838717098248 6.771409110332605 0 0 0 0
370 2 29.653731775825342 6.778508894567641 0 0 0 0
371 2 30.788685888314692 6.785346538142552 0 0 0 0
372 2 31.923806915980354 6.791810906730164 0 0 0 0
373 2 33.05910958071287 6.797807190156316 0 0 0 0
374 2 34.19451572649287 6.803290665361252 0 0 0 0
375 2 35.329959587111716 6.808264298224328 0 0 0 0
376 2 36.4654013540998 6.812760125236773 0 0 0 0
377 2 37.60082121894565 6.816825020702004 0 0 0 0
378 2 38.73621176367241 6.8205123768616165 0 0 0 0
379 2 39.871572242394244 6.823877871010458 0 0 0 0
380 2 41.00690481264409 6.826977638188363 0 0 0 0
381 2 42.14221217689424 6.829867787345218 0 0 0 0
382 2 43.277496191400495 6.832604654179115 0 0 0 0
383 2 44.4127572361237 6.835245416216381 0 0 0 0
384 2 45.547994421523235 6.837848718547706 0 0 0 0
385 2 46.68320706258709 6.840474721828565 0 0 0 0
386 2 47.81839828565991 6.84318332250805 0 0 0 0
387 2 48.953581894561765 6.846027936895733 0 0 0 0
388 2 50.08879234051998 6.849040205549175 0 0 0 0
389 2 51.22408925554132 6.852201198785523 0 0 0 0
390 2 52.359512387995224 6.855416965805218 0 0 0 0
391 2 53.494843536791265 6.858590743494875 0 0 0 0
392 2 54.63721311775433 6.861704165859764 0 0 0 0
393 1 0 7.71511708055278 0 0 0 0
394 1 1.1240473124201196 7.715165274423655 0 0 0 0
395 1 2.2418711015323676 7.715104381204144 0 0 0 0
396 1 3.3597409286023323 7.714945500596887 0 0 0 0
397 1 4.477574973479697 7.714729117879169 0 0 0 0
398 1 5.595361631495104 7.714502423267046 0 0 0 0
399 1 6.7131130098963405 7.714304102546389 0 0 0 0
400 1 7.830842153627963 7.714155931653287 0 0 0 0
401 1 8.948558169646319 7.7140697089355745 0 0 0 0
402 1 10.066266153193897 7.71405260502142 0 0 0 0
403 1 11.183968121347934 7.714110309688081 0 0 0 0
404 1 12.30166391898221 7.714248761331012 0 0 0 0
405 1 13.41935190226924 7.714475103073922 0 0 0 0
406 1 14.537029444355364 7.714798244069559 0 0 0 0
407 1 15.654693370236481 7.715229211683662 0 0 0 0
408 1 16.77234044896862 7.715781345130082 0 0 0 0
409 1 17.889968092884168 7.71647025815702 0 0 0 0
410 1 19.007575439382162 7.717313335902035 0 0 0 0
411 1 20.12516498559164 7.718328265400779 0 0 0 0
412 1 21.242744767729935 7.719529657396387 0 0 0 0
413 1 22.360330227696146 7.720922209742804 0 0 0 0
414 1 23.47794165213268 7.722488840765978 0 0 0 0
415 1 24.595580840382507 7.724181873214522 0 0 0 0
416 1 25.713149364241914 7.725922722414857 0 0 0 0
417 1 26.834530752695787 7.7276275106890004 0 0 0 0
418 2 27.95503269831498 7.7322687108601444 0 0 0 0
419 2 29.086081719084568 7.738742596131709 0 0 0 0
420 2 30.21977326007913 7.745090801374499 0 0 0 0
421 2 31.354275993626526 7.751222298944098 0 0 0 0
422 2 32.489183007635965 7.7570296990982355 0 0 0 0
423 2 33.624326355497764 7.762440407103047 0 0 0 0
424 2 34.759604771634336 7.767419904674255 0 0 0 0
425 2 35.89495165487975 7.771967704887807 0 0 0 0
426 2 37.030324843890774 7.77610678487806 0 0 0 0
427 2 38.16569938905055 7.779874253176851 0 0 0 0
428 2 39.301061641623726 7.7833150143938585 0 0 0 0
429 2 40.436404795261396 7.786478022258997 0 0 0 0
430 2 41.571725791075764 7.789414311624445 0 0 0 0
431 2 42.70702335635515 7.792176121780034 0 0 0 0
432 2 43.842297004614984 7.79481658927832 0 0 0 0
433 2 44.97754698918422 7.797389545247203 0 0 0 0
434 2 46.112775420016256 7.7999488349303805 0 0 0 0
435 2 47.24798897051313 7.802546226862404 0 0 0 0
436 2 48.38320365427289 7.805226385450482 0 0 0 0
437 2 49.51845159338515 7.8080169214130315 0 0 0 0
438 2 50.653787866314 7.810913295643537 0 0 0 0
439 2 51.78929480053832 7.813869809915071 0 0 0 0
440 2 52.92511591575945 7.816830447206956 0 0 0 0
441 2 54.06201379928511 7.819749850474126 0 0 0 0
442 1 0.5643031869585258 8.680739899788795 0 0 0 0
443 1 1.6826085121398973 8.680761173572261 0 0 0 0
444 1 2.8005613680538346 8.68069347583586 0 0 0 0
445 1 3.918417760493061 8.680561082277999 0 0 0 0
446 1 5.036212314784936 8.6803958789184 0 0 0 0
447 1 6.153960549825066 8.680231150175452 0 0 0 0
448 1 7.271675420021521 8.680094144455042 0 0 0 0
449 1 8.389366974035081 8.680002867896949 0 0 0 0
450 1 9.507042033446272 8.67996907549999 0 0 0 0
451 1 10.624704556233905 8.680001270099458 0 0 0 0
452 1 11.74235626157356 8.680106776254846 0 0 0 0
453 1 12.859997254928425 8.680293031030759 0 0 0 0
454 1 13.977626582399921 8.680568355470506 0 0 0 0
455 1 15.095242743594316 8.680942389667207 0 0 0 0
456 1 16.212844239031647 8.681426268534643 0 0 0 0
457 1 17.330430253653017 8.682032509180376 0 0 0 0
458 1 18.448001595783253 8.682774458159994 0 0 0 0
459 1 19.565562019117905 8.683664983087949 0 0 0 0
460 1 20.683120043236126 8.684713879092003 0 0 0 0
461 1 21.800691375314738 8.685923286809146 0 0 0 0
462 1 22.918302301133735 8.68728082199874 0 0 0 0
463 1 24.035996666356112 8.688753808951656 0 0 0 0
464 1 25.15386655359005 8.690288104626704 0 0 0 0
465 1 26.272269271438123 8.691811307634755 0 0 0 0
466 2 27.394282742745805 8.693842541381231 0 0 0 0
467 2 28.516047287924092 8.699638335021724 0 0 0 0
468 2 29.65086514578746 8.705529462640047 0 0 0 0
469 2 30.785252492598648 8.711265670613846 0 0 0 0
470 2 31.919824623553854 8.71678064553865 0 0 0 0
471 2 33.05465063313311 8.722005498378541 0 0 0 0
472 2 34.18968139073989 8.726889634156603 0 0 0 0
473 2 35.32485212574463 8.731407895235495 0 0 0 0
474 2 36.460108384972656 8.7355595186875 0 0 0 0
475 2 37.59541048830241 8.739362409751969 0 0 0 0
476 2 38.73073164991861 8.742847128428014 0 0 0 0
477 2 39.86605469395657 8.746052223446567 0 0 0 0
478 2 41.00136904137608 8.749021089011066 0 0 0 0
479 2 42.13666847118998 8.751800008117755 0 0 0 0
480 2 43.27194976439339 8.754436935449387 0 0 0 0
481 2 44.4072122662923 8.756980556611126 0 0 0 0
482 2 45.5424584515755 8.759479100479549 0 0 0 0
483 2 46.67769561347102 8.76197822979581 0 0 0 0
484 2 47.812938625747286 8.764517147352155 0 0 0 0
485 2 48.94821289120835 8.767122173406245 0 0 0 0
486 2 50.083554035258004 8.769798617601445 0 0 0 0
487 2 51.21899435460244 8.772527275869045 0 0 0 0
488 2 52.35451079372369 8.775278321653065 0 0 0 0
489 2 53.489856947884626 8.778024117827645 0 0 0 0
490 2 54.63216603269038 8.78078943350612 0 0 0 0
491 1 0 9.646370724265394 0 0 0 0
492 1 1.1238453343494954 9.646426522395128 0 0 0 0
540 1 0.5641244299731807 10.612108332739039 0 0 0 0
493 1 2.2415418463914762 9.64642121846366 0 0 0 0
541 1 1.6823420703171263 10.612149168036487 0 0 0 0
494 1 3.3593184273352628 9.646356258192949 0 0 0 0
542 1 2.800201891927317 10.612135758583465 0 0 0 0
495 1 4.477086711396071 9.646250918305405 0 0 0 0
543 1 3.917978043890655 10.612081283158735 0 0 0 0
496 1 5.5948232330316605 9.646129433014561 0 0 0 0
544 1 5.035707493425415 10.61200283472448 0 0 0 0
497 1 6.712526125913298 9.64601619968337 0 0 0 0
545 1 6.153400035072674 10.61191968582341 0 0 0 0
546 1 7.271060943537206 10.611850658178286 0 0 0 0
498 1 7.830200435059957 9.645931708318411 0 0 0 0
547 1 8.388695163267295 10.611812015762647 0 0 0 0
499 1 8.94785199996041 9.645891140270574 0 0 0 0
548 1 9.506307141430222 10.611816833058551 0 0 0 0
500 1 10.06548542743309 9.64590576034519 0 0 0 0
549 1 10.62390040732441 10.61187570175571 0 0 0 0
501 1 11.183103700254337 9.645984626038285 0 0 0 0
502 1 12.300708384662347 9.646135924717699 0 0 0 0
550 1 11.741477491498575 10.611997718640698 0 0 0 0
503 1 13.418300032739435 9.646367870873833 0 0 0 0
551 1 12.859040110788795 10.612191318478532 0 0 0 0
504 1 14.53587865000748 9.64668923744953 0 0 0 0
552 1 13.976589504893042 10.612464836119898 0 0 0 0
505 1 15.653444216783505 9.647109579911229 0 0 0 0
553 1 15.094126868089344 10.612826783076684 0 0 0 0
506 1 16.770997301679113 9.647639148771425 0 0 0 0
554 1 16.211653866806774 10.61328582568464 0 0 0 0
507 1 17.88853981944827 9.648288403625756 0 0 0 0
555 1 17.329173255429854 10.61385041366631 0 0 0 0
556 1 18.446689598429433 10.614527955564908 0 0 0 0
508 1 19.006075961378684 9.649066943434999 0 0 0 0
557 1 19.56421007475934 10.615323394997183 0 0 0 0
509 1 20.123613222029586 9.64998156789092 0 0 0 0
558 1 20.681745292561818 10.616237064816575 0 0 0 0
510 1 21.241163129875716 9.65103316196871 0 0 0 0
559 1 21.799310095392094 10.61726192563757 0 0 0 0
511 1 22.35874038439055 9.6522124351854 0 0 0 0
560 1 22.916925109206762 10.618380976146225 0 0 0 0
512 1 23.476356509648827 9.653496056050335 0 0 0 0
513 1 24.593997247156416 9.654845131033271 0 0 0 0
561 1 24.03462401651185 10.619565980063543 0 0 0 0
514 1 25.711545946597333 9.656207140620028 0 0 0 0
562 1 25.15248759533673 10.620778424976669 0 0 0 0
515 1 26.832866381005335 9.657533377351248 0 0 0 0
563 1 26.270866564126315 10.621971309201587 0 0 0 0
516 2 27.953251166338802 9.661321262335578 0 0 0 0
564 2 27.39278142951751 10.623586466456274 0 0 0 0
517 2 29.083875136780694 9.666669075840732 0 0 0 0
565 2 28.514305960069937 10.628350227063887 0 0 0 0
518 2 30.217085193970266 9.671946818150765 0 0 0 0
566 2 29.64874548047005 10.633214278201484 0 0 0 0
567 2 30.782710186606398 10.637983279912419 0 0 0 0
519 2 31.35108770108456 9.677099988039215 0 0 0 0
568 2 31.916843463703056 10.642615632017487 0 0 0 0
520 2 32.48551387212824 9.682054309492846 0 0 0 0
569 2 33.05124524677914 10.64706314639162 0 0 0 0
521 2 33.62023095366508 9.686753610372312 0 0 0 0
570 2 34.1858928716792 10.651285441196448 0 0 0 0
522 2 34.75515834705997 9.691159786993024 0 0 0 0
571 2 35.320737831444866 10.655254902406458 0 0 0 0
523 2 35.890233149846885 9.695254373357834 0 0 0 0
524 2 37.025405623901854 9.699037426691655 0 0 0 0
572 2 36.455730630832164 10.65895864793635 0 0 0 0
525 2 38.16063818031365 9.702524019912474 0 0 0 0
573 2 37.590828309758315 10.662398058217917 0 0 0 0
526 2 39.295903704452975 9.705740233416343 0 0 0 0
574 2 38.72599644111022 10.665586615034247 0 0 0 0
527 2 40.43118342387987 9.708719697174894 0 0 0 0
575 2 39.861208913749536 10.668547154335833 0 0 0 0
528 2 41.56646492982126 9.711500958855344 0 0 0 0
576 2 40.99644690059549 10.671309234574526 0 0 0 0
529 2 42.70174072640816 9.714125545202986 0 0 0 0
577 2 42.13169775264699 10.673906871093235 0 0 0 0
578 2 43.26695421390269 10.676376586694428 0 0 0 0
530 2 43.83700748819169 9.716636405301173 0 0 0 0
579 2 44.402214142840776 10.678755562984913 0 0 0 0
531 2 44.97226611436435 9.719076333444406 0 0 0 0
580 2 45.53748076827954 10.681079604124717 0 0 0 0
532 2 46.10752259864467 9.721485900023852 0 0 0 0
581 2 46.67276330443809 10.683380654147477 0 0 0 0
533 2 47.242789560846695 9.72390040748508 0 0 0 0
534 2 48.3780878490723 9.726345652886499 0 0 0 0
582 2 47.80807738088004 10.68568384987776 0 0 0 0
535 2 49.5134469045883 9.72883336241681 0 0 0 0
583 2 48.94344408012986 10.68800476532134 0 0 0 0
536 2 50.64890285987859 9.731359746809774 0 0 0 0
584 2 50.07888531143618 10.690348696762797 0 0 0 0
537 2 51.784502319906665 9.733912313005264 0 0 0 0
585 2 51.21441103012099 10.692714142994637 0 0 0 0
538 2 52.920367371990025 9.73647818660183 0 0 0 0
586 2 52.34998135451621 10.695097803805702 0 0 0 0
539 2 54.057266392417255 9.739051025950172 0 0 0 0
587 2 53.48534739713649 10.697498382783603 0 0 0 0
588 2 54.62765546835394 10.69995487141841 0 0 0 0
589 1 0 11.577840199592927 0 0 0 0