
units lj
dimension 2
atom_style atomic
boundary f f p

read_data two_material.data
Reading data file ...
  orthogonal box = (-5 -5 -10) to (59.439409 52.631952 10)
  1 by 1 by 1 MPI processor grid
  reading atoms ...
  2450 atoms
  read_data CPU = 0.006 seconds

# Pair parameters:
# type 1 = material A
# type 2 = material B
pair_style lj/cut 2.1326778917878086
pair_coeff 1 1 1.0000000000000000e+00  1.0000000000000000e+00  2.1326778917878086e+00
pair_coeff 2 2 1.0000000000000001e-01  1.0000000000000000e+00  2.1326778917878086e+00
pair_coeff 1 2 3.1622776601683794e-01 1.0000000000000000e+00 2.1326778917878086e+00

neighbor 0.3 bin
neigh_modify every 1 delay 0 check yes

fix keep2d all enforce2d

# ---------------------------------------------------------------
# Boundary condition groups
# ---------------------------------------------------------------
group left_x id 1 99 197 295 393 491 589 687 785 883 981 1079 1177 1275 1373 1471 1569 1667 1765 1863 1961 2059 2157 2255 2353
25 atoms in group left_x
group anchor id 1
1 atoms in group anchor
group rightwall id 49 98 147 196 245 294 343 392 441 490 539 588 637 686 735 784 833 882 931 980 1029 1078 1127 1176 1225 1274 1323 1372 1421 1470 1519 1568 1617 1666 1715 1764 1813 1862 1911 1960 2009 2058 2107 2156 2205 2254 2303 2352 2401 2450
50 atoms in group rightwall

# ---------------------------------------------------------------
# Dirichlet constraints
# ---------------------------------------------------------------

# fix fix_origin origin setforce 0.0 0.0 0.0
# fix fix_xaxis xaxis setforce NULL 0.0 0.0
# fix fix_yaxis yaxis setforce 0.0 NULL 0.0

fix fix_left_x left_x setforce 0.0 NULL 0.0
fix fix_anchor anchor setforce NULL 0.0 0.0


# ---------------------------------------------------------------
# Neumann loading
#
# Constant force per loaded atom:
#     [1.0000000000000001e-01, 0.0000000000000000e+00]
#
# Number of loaded atoms:
#     50
#
# Total applied force:
#     [5.0000000000000000e+00, 0.0000000000000000e+00]
# ---------------------------------------------------------------

fix load_right rightwall addforce 1.0000000000000001e-01 0.0000000000000000e+00 0.0
fix_modify load_right energy yes

thermo 100
compute pairpe all pe pair
thermo_style custom step pe c_pairpe fnorm fmax
thermo_modify norm no

reset_timestep 0

dump traj all custom 100 two_material.dump id type x y z fx fy fz
dump_modify traj sort id

min_style cg
minimize 0.0 9.9999999999999998e-13 15000 100000

CITE-CITE-CITE-CITE-CITE-CITE-CITE-CITE-CITE-CITE-CITE-CITE-CITE

Your simulation uses code contributions which should be cited:

- Type Label Framework: https://doi.org/10.1021/acs.jpcb.3c08419

@Article{Gissinger24,
 author = {Jacob R. Gissinger, Ilia Nikiforov, Yaser Afshar, Brendon Waters, Moon-ki Choi, Daniel S. Karls, Alexander Stukowski, Wonpil Im, Hendrik Heinz, Axel Kohlmeyer, and Ellad B. Tadmor},
 title = {Type Label Framework for Bonded Force Fields in LAMMPS},
 journal = {J. Phys. Chem. B},
 year =    2024,
 volume =  128,
 number =  13,
 pages =   {3282–-3297}
}

CITE-CITE-CITE-CITE-CITE-CITE-CITE-CITE-CITE-CITE-CITE-CITE-CITE

Generated 0 of 1 mixed pair_coeff terms from geometric mixing rule
Neighbor list info ...
  update: every = 1 steps, delay = 0 steps, check = yes
  max neighbors/atom: 2000, page size: 100000
  master list distance cutoff = 2.4326779
  ghost atom cutoff = 2.4326779
  binsize = 1.2163389, bins = 53 48 17
  1 neighbor lists, perpetual/occasional/extra = 1 0 0
  (1) pair lj/cut, perpetual
      attributes: half, newton on
      pair build: half/bin/atomonly/newton
      stencil: half/bin/2d
      bin: standard
Per MPI rank memory allocation (min/avg/max) = 4.186 | 4.186 | 4.186 Mbytes
   Step         PotEng        c_pairpe        Fnorm           Fmax     
         0  -4459.486      -4188.6921      4.9167465      0.44027575   
       100  -4463.6649     -4192.2738      0.80678098     0.0585063    
       200  -4463.839      -4192.2985      0.37062686     0.02531352   
       300  -4463.8832     -4192.0772      0.19781451     0.013482325  
       400  -4463.9031     -4192.1311      0.19599253     0.01466534   
       500  -4463.9148     -4192.2201      0.15693928     0.010165935  
       600  -4463.9184     -4192.2359      0.060942117    0.0042309533 
       700  -4463.9192     -4192.2104      0.023899913    0.002192377  
       800  -4463.9193     -4192.2036      0.0018788069   0.00011447751
       900  -4463.9193     -4192.2025      0.0010870646   7.913246e-05 
      1000  -4463.9193     -4192.2015      0.0012170497   7.996852e-05 
      1100  -4463.9193     -4192.2018      0.00094781974  6.4721035e-05
      1200  -4463.9193     -4192.2023      0.0003537365   2.357696e-05 
      1300  -4463.9193     -4192.2024      0.00010580318  6.4906702e-06
      1400  -4463.9193     -4192.2023      7.0871914e-05  5.7966442e-06
      1500  -4463.9193     -4192.2023      8.1443253e-06  5.2749705e-07
      1600  -4463.9193     -4192.2023      6.2924328e-06  4.7540952e-07
      1700  -4463.9193     -4192.2023      4.7362277e-06  3.0205803e-07
      1800  -4463.9193     -4192.2023      3.3585695e-06  2.197803e-07 
      1900  -4463.9193     -4192.2023      1.1940582e-06  9.5459265e-08
      2000  -4463.9193     -4192.2023      4.0925565e-07  2.8903182e-08
      2100  -4463.9193     -4192.2023      2.1225605e-07  1.5673126e-08
      2200  -4463.9193     -4192.2023      2.0857598e-08  1.278943e-09 
      2300  -4463.9193     -4192.2023      3.2063753e-08  2.1554282e-09
      2400  -4463.9193     -4192.2023      1.737783e-08   1.2699268e-09
      2500  -4463.9193     -4192.2023      9.5441542e-09  6.0685457e-10
      2600  -4463.9193     -4192.2023      1.2213224e-09  7.2025497e-11
      2700  -4463.9193     -4192.2023      8.144654e-10   5.3825888e-11
      2800  -4463.9193     -4192.2023      4.0203944e-10  3.0671521e-11
      2900  -4463.9193     -4192.2023      1.4232484e-10  1.1619206e-11
      3000  -4463.9193     -4192.2023      1.6066799e-10  1.2743639e-11
      3100  -4463.9193     -4192.2023      1.1073347e-10  1.014766e-11 
      3200  -4463.9193     -4192.2023      2.5525726e-11  2.7150227e-12
      3300  -4463.9193     -4192.2023      2.3908766e-11  2.4319158e-12
      3400  -4463.9193     -4192.2023      2.4791022e-11  2.6065539e-12
      3500  -4463.9193     -4192.2023      2.4724151e-11  2.837397e-12 
      3600  -4463.9193     -4192.2023      2.4569412e-11  2.2110647e-12
      3700  -4463.9193     -4192.2023      2.2598983e-11  2.4150126e-12
      3800  -4463.9193     -4192.2023      2.2465905e-11  2.7723102e-12
      3900  -4463.9193     -4192.2023      2.2638421e-11  2.3540198e-12
      4000  -4463.9193     -4192.2023      2.1651932e-11  2.4550362e-12
      4100  -4463.9193     -4192.2023      2.2568712e-11  2.326167e-12 
      4200  -4463.9193     -4192.2023      2.1707143e-11  2.4049929e-12
      4300  -4463.9193     -4192.2023      2.2325542e-11  2.4673874e-12
      4400  -4463.9193     -4192.2023      2.2500299e-11  2.5053848e-12
      4500  -4463.9193     -4192.2023      2.0094324e-11  2.9731773e-12
      4600  -4463.9193     -4192.2023      2.0704847e-11  2.3301083e-12
      4700  -4463.9193     -4192.2023      2.0542727e-11  1.9570873e-12
      4800  -4463.9193     -4192.2023      2.1823804e-11  2.7264579e-12
      4900  -4463.9193     -4192.2023      2.2048235e-11  2.8028413e-12
      5000  -4463.9193     -4192.2023      2.1512158e-11  2.0433377e-12
      5100  -4463.9193     -4192.2023      2.0427455e-11  2.3680641e-12
      5200  -4463.9193     -4192.2023      2.1239927e-11  2.3767655e-12
      5300  -4463.9193     -4192.2023      2.1964443e-11  2.0710794e-12
      5400  -4463.9193     -4192.2023      2.0273111e-11  2.0306534e-12
      5500  -4463.9193     -4192.2023      2.0078717e-11  2.185252e-12 
      5600  -4463.9193     -4192.2023      1.970215e-11   1.8828272e-12
      5700  -4463.9193     -4192.2023      2.1043543e-11  2.0701774e-12
      5800  -4463.9193     -4192.2023      2.0164058e-11  2.1277424e-12
      5900  -4463.9193     -4192.2023      2.1249397e-11  2.0267815e-12
      6000  -4463.9193     -4192.2023      1.8575983e-11  1.9476365e-12
      6100  -4463.9193     -4192.2023      2.0258619e-11  2.1124491e-12
      6200  -4463.9193     -4192.2023      2.0110348e-11  2.0093927e-12
      6300  -4463.9193     -4192.2023      2.1372114e-11  2.5215247e-12
      6400  -4463.9193     -4192.2023      1.9866128e-11  2.2403468e-12
      6500  -4463.9193     -4192.2023      2.0618165e-11  2.2353508e-12
      6600  -4463.9193     -4192.2023      2.0644054e-11  2.3473445e-12
      6700  -4463.9193     -4192.2023      2.1317927e-11  2.3109847e-12
      6800  -4463.9193     -4192.2023      2.1012867e-11  2.0711766e-12
      6900  -4463.9193     -4192.2023      2.2218475e-11  2.3094859e-12
      7000  -4463.9193     -4192.2023      1.8868394e-11  1.953257e-12 
      7100  -4463.9193     -4192.2023      1.9683392e-11  1.7940649e-12
      7200  -4463.9193     -4192.2023      1.8969738e-11  1.9099722e-12
      7300  -4463.9193     -4192.2023      1.9681361e-11  1.971201e-12 
      7400  -4463.9193     -4192.2023      1.9795491e-11  1.6840418e-12
      7500  -4463.9193     -4192.2023      1.92641e-11    1.9958202e-12
      7600  -4463.9193     -4192.2023      1.9799802e-11  1.9983321e-12
      7700  -4463.9193     -4192.2023      2.0254785e-11  2.3678975e-12
      7800  -4463.9193     -4192.2023      1.9340741e-11  2.2372798e-12
      7900  -4463.9193     -4192.2023      1.8957523e-11  2.0999452e-12
      8000  -4463.9193     -4192.2023      1.9968913e-11  2.1136426e-12
      8100  -4463.9193     -4192.2023      1.961085e-11   2.1611879e-12
      8200  -4463.9193     -4192.2023      2.1038669e-11  2.8347324e-12
      8300  -4463.9193     -4192.2023      1.9985703e-11  2.0710933e-12
      8400  -4463.9193     -4192.2023      1.9993537e-11  1.8115787e-12
      8500  -4463.9193     -4192.2023      1.9653271e-11  1.7908452e-12
      8600  -4463.9193     -4192.2023      2.0742976e-11  1.9624025e-12
      8700  -4463.9193     -4192.2023      1.9825802e-11  1.8496871e-12
      8800  -4463.9193     -4192.2023      2.0492266e-11  2.3456792e-12
      8900  -4463.9193     -4192.2023      2.0694601e-11  1.9249463e-12
      9000  -4463.9193     -4192.2023      1.978922e-11   2.3469005e-12
      9100  -4463.9193     -4192.2023      1.9654811e-11  1.9262925e-12
      9200  -4463.9193     -4192.2023      1.8928036e-11  2.2293556e-12
      9300  -4463.9193     -4192.2023      1.9988034e-11  2.188179e-12 
      9400  -4463.9193     -4192.2023      2.0024093e-11  1.9119706e-12
      9500  -4463.9193     -4192.2023      1.9543701e-11  2.1277008e-12
      9600  -4463.9193     -4192.2023      2.0182724e-11  2.035018e-12 
      9700  -4463.9193     -4192.2023      1.9700332e-11  1.9491769e-12
      9800  -4463.9193     -4192.2023      2.1484322e-11  2.4191482e-12
      9900  -4463.9193     -4192.2023      2.0977451e-11  1.757261e-12 
     10000  -4463.9193     -4192.2023      1.8462644e-11  1.8035712e-12
     10100  -4463.9193     -4192.2023      2.0900349e-11  2.3890334e-12
     10200  -4463.9193     -4192.2023      2.1205334e-11  2.4076297e-12
     10300  -4463.9193     -4192.2023      1.8105041e-11  1.7951782e-12
     10400  -4463.9193     -4192.2023      1.9152923e-11  1.9940716e-12
     10500  -4463.9193     -4192.2023      1.8743701e-11  2.0841107e-12
     10600  -4463.9193     -4192.2023      1.8644674e-11  1.8055557e-12
     10700  -4463.9193     -4192.2023      1.9541257e-11  2.0268093e-12
     10800  -4463.9193     -4192.2023      1.9645829e-11  2.0960178e-12
     10900  -4463.9193     -4192.2023      1.95874e-11    2.0350249e-12
     11000  -4463.9193     -4192.2023      1.921945e-11   2.4018287e-12
     11100  -4463.9193     -4192.2023      1.9236839e-11  2.1118107e-12
     11200  -4463.9193     -4192.2023      1.843576e-11   1.8591934e-12
     11300  -4463.9193     -4192.2023      1.8567415e-11  1.9281521e-12
     11400  -4463.9193     -4192.2023      2.0236077e-11  2.1516955e-12
     11500  -4463.9193     -4192.2023      2.02012e-11    2.5293934e-12
     11600  -4463.9193     -4192.2023      1.9874333e-11  1.9539925e-12
     11700  -4463.9193     -4192.2023      1.9290767e-11  1.6794205e-12
     11800  -4463.9193     -4192.2023      1.8432582e-11  1.9742541e-12
     11900  -4463.9193     -4192.2023      1.9709618e-11  2.4645286e-12
     12000  -4463.9193     -4192.2023      1.9280403e-11  2.1030955e-12
     12100  -4463.9193     -4192.2023      1.8350186e-11  1.5744628e-12
     12200  -4463.9193     -4192.2023      1.8969358e-11  1.7019719e-12
     12300  -4463.9193     -4192.2023      1.7943025e-11  1.7330581e-12
     12400  -4463.9193     -4192.2023      1.9644438e-11  2.4020785e-12
     12500  -4463.9193     -4192.2023      1.8252022e-11  1.9694663e-12
     12600  -4463.9193     -4192.2023      1.9270272e-11  2.0543567e-12
     12700  -4463.9193     -4192.2023      1.8428005e-11  2.0384527e-12
     12800  -4463.9193     -4192.2023      1.8988517e-11  1.9299701e-12
     12900  -4463.9193     -4192.2023      1.734822e-11   1.5598078e-12
     13000  -4463.9193     -4192.2023      1.6982611e-11  2.0220353e-12
     13100  -4463.9193     -4192.2023      2.0030733e-11  1.7672669e-12
     13200  -4463.9193     -4192.2023      1.8352195e-11  2.3444024e-12
     13300  -4463.9193     -4192.2023      1.837602e-11   1.808359e-12 
     13400  -4463.9193     -4192.2023      1.8582648e-11  1.6643908e-12
     13500  -4463.9193     -4192.2023      1.8125828e-11  1.8355872e-12
     13600  -4463.9193     -4192.2023      1.8847262e-11  1.7816859e-12
     13700  -4463.9193     -4192.2023      1.8953324e-11  2.080669e-12 
     13800  -4463.9193     -4192.2023      1.877809e-11   1.9127339e-12
     13900  -4463.9193     -4192.2023      1.8703181e-11  2.0361768e-12
     14000  -4463.9193     -4192.2023      2.0448706e-11  2.3756552e-12
     14100  -4463.9193     -4192.2023      1.8898389e-11  1.941336e-12 
     14200  -4463.9193     -4192.2023      1.8102566e-11  1.6467105e-12
     14300  -4463.9193     -4192.2023      1.8659898e-11  2.0995705e-12
     14400  -4463.9193     -4192.2023      1.8822266e-11  1.9262925e-12
     14500  -4463.9193     -4192.2023      1.8225494e-11  2.0636409e-12
     14600  -4463.9193     -4192.2023      1.8859695e-11  1.9159951e-12
     14700  -4463.9193     -4192.2023      1.3063645e-11  1.3347934e-12
     14800  -4463.9193     -4192.2023      1.9140358e-11  1.8893637e-12
     14900  -4463.9193     -4192.2023      1.8937182e-11  2.0457247e-12
     15000  -4463.9193     -4192.2023      1.8598805e-11  2.0936586e-12
Loop time of 11.581 on 1 procs for 15000 steps with 2450 atoms

99.9% CPU use with 1 MPI tasks x 1 OpenMP threads

Minimization stats:
  Stopping criterion = max iterations
  Energy initial, next-to-last, final = 
      -4459.4860193962  -4463.91928138919  -4463.91928138919
  Force two-norm initial, final = 4.9167465 1.8598805e-11
  Force max component initial, final = 0.44027575 2.0936586e-12
  Final line search alpha, max atom move = 1 2.0936586e-12
  Iterations, force evaluations = 15000 30000

MPI task timing breakdown:
Section |  min time  |  avg time  |  max time  |%varavg| %total
---------------------------------------------------------------
Pair    | 9.0813     | 9.0813     | 9.0813     |   0.0 | 78.42
Neigh   | 0.0025078  | 0.0025078  | 0.0025078  |   0.0 |  0.02
Comm    | 0.0037344  | 0.0037344  | 0.0037344  |   0.0 |  0.03
Output  | 0.86129    | 0.86129    | 0.86129    |   0.0 |  7.44
Modify  | 0.40677    | 0.40677    | 0.40677    |   0.0 |  3.51
Other   |            | 1.225      |            |       | 10.58

Nlocal:           2450 ave        2450 max        2450 min
Histogram: 1 0 0 0 0 0 0 0 0 0
Nghost:              0 ave           0 max           0 min
Histogram: 1 0 0 0 0 0 0 0 0 0
Neighs:          21118 ave       21118 max       21118 min
Histogram: 1 0 0 0 0 0 0 0 0 0

Total # of neighbors = 21118
Ave neighs/atom = 8.6195918
Neighbor list builds = 10
Dangerous builds = 0

undump traj
write_data final_two_material.data
System init for write_data ...
Generated 0 of 1 mixed pair_coeff terms from geometric mixing rule
WARNING: Not all mixed pair coeffs generated from mixing. Use write_data with 'pair ij' option to store all pair coeffs. (src/write_data.cpp:364)
Total wall time: 0:00:11
